                               Psi4 1.3.2 release

  ==> Input File <==

--------------------------------------------------------------------------
memory 144 GB

molecule {
0 1
B 0.0000000000 0.0000000000 0.0000000000
H 0.0000000000 0.0000000000 1.1899000000
H 1.0304836280 0.0000000000 -0.5949500000
H -1.0304836280 -0.0000000000 -0.5949500000
}

set dynamic_level 1
set basis aug-cc-pV(T+d)Z

optimize("wB97X-V")
frequencies("wB97X-V")
--------------------------------------------------------------------------

    Molecular point group: c2v
  Charge       = 0
  Multiplicity = 1
  Basis Set: AUG-CC-PV(T+D)Z
    Blend: AUG-CC-PV(T+D)Z
  Basis Set: (AUG-CC-PV(T+D)Z AUX)
    Blend: AUG-CC-PVTZ-JKFIT
  @DF-RKS Final Energy:   -26.60552177441359
    Total Energy =                        -26.6055217744135923
    Molecular point group: c2v
  Basis Set: AUG-CC-PV(T+D)Z
    Blend: AUG-CC-PV(T+D)Z
  Basis Set: (AUG-CC-PV(T+D)Z AUX)
    Blend: AUG-CC-PVTZ-JKFIT
  @DF-RKS Final Energy:   -26.60551956557313
    Total Energy =                        -26.6055195655731289
  Basis Set: AUG-CC-PV(T+D)Z
    Blend: AUG-CC-PV(T+D)Z
  Basis Set: (AUG-CC-PV(T+D)Z AUX)
    Blend: AUG-CC-PVTZ-JKFIT
  @DF-RKS Final Energy:   -26.60551955542314
    Total Energy =                        -26.6055195554231432
  Basis Set: AUG-CC-PV(T+D)Z
    Blend: AUG-CC-PV(T+D)Z
  Basis Set: (AUG-CC-PV(T+D)Z AUX)
    Blend: AUG-CC-PVTZ-JKFIT
  @DF-RKS Final Energy:   -26.60550861132718
    Total Energy =                        -26.6055086113271777
  @DF-RKS Final Energy:   -26.60552979622480
    Total Energy =                        -26.6055297962248005
  @DF-RKS Final Energy:   -26.60550862035227
    Total Energy =                        -26.6055086203522677
  @DF-RKS Final Energy:   -26.60552978726401
    Total Energy =                        -26.6055297872640146
  @DF-RKS Final Energy:   -26.60553954625692
    Total Energy =                        -26.6055395462569244
  @DF-RKS Final Energy:   -26.60553736366893
    Total Energy =                        -26.6055373636689296
  @DF-RKS Final Energy:   -26.60553736410537
    Total Energy =                        -26.6055373641053698
  @DF-RKS Final Energy:   -26.60553697587139
    Total Energy =                        -26.6055369758713915
  @DF-RKS Final Energy:   -26.60553705524162
    Total Energy =                        -26.6055370552416228
  @DF-RKS Final Energy:   -26.60553697612045
    Total Energy =                        -26.6055369761204474
  @DF-RKS Final Energy:   -26.60553705521340
    Total Energy =                        -26.6055370552133930
  **** Optimization is complete! (in 2 steps) ****
    Final optimized geometry and variables:
  @DF-RKS Final Energy:   -26.60553954633226
    Total Energy =                        -26.6055395463322526
  @DF-RKS Final Energy:   -26.60553736381407
    Total Energy =                        -26.6055373638140722
  @DF-RKS Final Energy:   -26.60553736417408
    Total Energy =                        -26.6055373641740829
  @DF-RKS Final Energy:   -26.60553697585542
    Total Energy =                        -26.6055369758554257
  @DF-RKS Final Energy:   -26.60553705521577
    Total Energy =                        -26.6055370552157697
  @DF-RKS Final Energy:   -26.60553697600126
    Total Energy =                        -26.6055369760012645
  @DF-RKS Final Energy:   -26.60553705506761
    Total Energy =                        -26.6055370550676145
  @DF-RKS Final Energy:   -26.60553954633222
    Total Energy =                        -26.6055395463322242
  @DF-RKS Final Energy:   -26.60553736381401
    Total Energy =                        -26.6055373638140118
  @DF-RKS Final Energy:   -26.60553736417406
    Total Energy =                        -26.6055373641740616
  @DF-RKS Final Energy:   -26.60553697585538
    Total Energy =                        -26.6055369758553795
  @DF-RKS Final Energy:   -26.60553705521580
    Total Energy =                        -26.6055370552158017
  @DF-RKS Final Energy:   -26.60553697600126
    Total Energy =                        -26.6055369760012610
  @DF-RKS Final Energy:   -26.60553705506763
    Total Energy =                        -26.6055370550676322
  @DF-RKS Final Energy:   -26.60553680966433
    Total Energy =                        -26.6055368096643328
  @DF-RKS Final Energy:   -26.60553673482217
    Total Energy =                        -26.6055367348221665
  @DF-RKS Final Energy:   -26.60553294890921
    Total Energy =                        -26.6055329489092109
  @DF-RKS Final Energy:   -26.60553283833621
    Total Energy =                        -26.6055328383362095
  @DF-RKS Final Energy:   -26.60553340438252
    Total Energy =                        -26.6055334043825162
  @DF-RKS Final Energy:   -26.60553323046354
    Total Energy =                        -26.6055332304635321
  @DF-RKS Final Energy:   -26.60553736361915
    Total Energy =                        -26.6055373636191526
  Basis Set: AUG-CC-PV(T+D)Z
    Blend: AUG-CC-PV(T+D)Z
  Basis Set: (AUG-CC-PV(T+D)Z AUX)
    Blend: AUG-CC-PVTZ-JKFIT
  @DF-RKS Final Energy:   -26.60553749836376
    Total Energy =                        -26.6055374983637627
  Basis Set: AUG-CC-PV(T+D)Z
    Blend: AUG-CC-PV(T+D)Z
  Basis Set: (AUG-CC-PV(T+D)Z AUX)
    Blend: AUG-CC-PVTZ-JKFIT
  @DF-RKS Final Energy:   -26.60553257246099
    Total Energy =                        -26.6055325724609979
  Multiplicity = 1
  Basis Set: AUG-CC-PV(T+D)Z
    Blend: AUG-CC-PV(T+D)Z
  Basis Set: (AUG-CC-PV(T+D)Z AUX)
    Blend: AUG-CC-PVTZ-JKFIT
  @DF-RKS Final Energy:   -26.60553257274843
    Total Energy =                        -26.6055325727484338
    Molecular point group: cs

    Geometry (in Angstrom), charge = 0, multiplicity = 1:

       Center              X                  Y                   Z               Mass
    ------------   -----------------  -----------------  -----------------  -----------------
         B            0.000000000000    -0.000370145531    -0.000000152055    11.009305360000
         H            0.000000000000     0.001347800208     1.193515710545     1.007825032230
         H            1.033611131504     0.001347802599    -0.596757024761     1.007825032230
         H           -1.033611131504     0.001347802599    -0.596757024761     1.007825032230

  Charge       = 0
  Multiplicity = 1
  Basis Set: AUG-CC-PV(T+D)Z
    Blend: AUG-CC-PV(T+D)Z
  Basis Set: (AUG-CC-PV(T+D)Z AUX)
    Blend: AUG-CC-PVTZ-JKFIT

    Orbital Energies [Eh]
    ---------------------

    Doubly Occupied:

       1Ap    -6.865265     2Ap    -0.636814     3Ap    -0.459245
       1App   -0.459244

  @DF-RKS Final Energy:   -26.60553891623947

   => Energetics <=

    Nuclear Repulsion Energy =              7.4186120688964738
    One-Electron Energy =                 -49.0629608621090227
    Two-Electron Energy =                  18.3250206307837544
    DFT Exchange-Correlation Energy =      -3.3200582704308714
    Empirical Dispersion Energy =           0.0000000000000000
    VV10 Nonlocal Energy =                  0.0338475166201951
    Total Energy =                        -26.6055389162394711

  Dipole Moment: [D]
     X:     0.0000      Y:    -0.0036      Z:     0.0000     Total:     0.0036

  Vibration                       7                   8                   9
  Freq [cm^-1]                1154.1214           1206.3458           1252.5620
  Irrep                           B2                  A1                  B1
  Reduced mass [u]              1.2531              1.1069              1.1112
  Force const [mDyne/A]         0.9834              0.9491              1.0272

  Vibration                       10                  11                  12
  Freq [cm^-1]                2565.9032           2697.0942           2715.6245
  Irrep                           A1                  A1                  B1
  Reduced mass [u]              1.0078              1.1276              1.1231
  Force const [mDyne/A]         3.9095              4.8328              4.8800

  ==> Thermochemistry Components <==

  Entropy, S
    Electronic S            0.000 [cal/(mol K)]        0.000 [J/(mol K)]       0.00000000 [mEh/K] (multiplicity = 1)
    Translational S        33.864 [cal/(mol K)]      141.688 [J/(mol K)]       0.05396630 [mEh/K] (mol. weight = 14.0328 [u], P = 101325.00 [Pa])
    Rotational S           13.195 [cal/(mol K)]       55.207 [J/(mol K)]       0.02102725 [mEh/K] (symmetry no. = 2)
    Vibrational S           0.124 [cal/(mol K)]        0.518 [J/(mol K)]       0.00019717 [mEh/K]
  Total S                  47.183 [cal/(mol K)]      197.413 [J/(mol K)]       0.07519072 [mEh/K]
  Correction S              0.000 [cal/(mol K)]        0.000 [J/(mol K)]       0.00000000 [mEh/K]

  Constant volume heat capacity, Cv
    Electronic Cv           0.000 [cal/(mol K)]        0.000 [J/(mol K)]       0.00000000 [mEh/K]
    Translational Cv        2.981 [cal/(mol K)]       12.472 [J/(mol K)]       0.00475022 [mEh/K]
    Rotational Cv           2.981 [cal/(mol K)]       12.472 [J/(mol K)]       0.00475022 [mEh/K]
    Vibrational Cv          0.613 [cal/(mol K)]        2.566 [J/(mol K)]       0.00097727 [mEh/K]
  Total Cv                  6.575 [cal/(mol K)]       27.509 [J/(mol K)]       0.01047770 [mEh/K]
  Correction Cv             0.000 [cal/(mol K)]        0.000 [J/(mol K)]       0.00000000 [mEh/K]

  Constant pressure heat capacity, Cp
    Electronic Cp           0.000 [cal/(mol K)]        0.000 [J/(mol K)]       0.00000000 [mEh/K]
    Translational Cp        4.968 [cal/(mol K)]       20.786 [J/(mol K)]       0.00791703 [mEh/K]
    Rotational Cp           2.981 [cal/(mol K)]       12.472 [J/(mol K)]       0.00475022 [mEh/K]
    Vibrational Cp          0.613 [cal/(mol K)]        2.566 [J/(mol K)]       0.00097727 [mEh/K]
  Total Cp                  8.562 [cal/(mol K)]       35.824 [J/(mol K)]       0.01364452 [mEh/K]
  Correction Cp             0.000 [cal/(mol K)]        0.000 [J/(mol K)]       0.00000000 [mEh/K]

  ==> Thermochemistry Energy Analysis <==

  Raw electronic energy, E0
  Total E0, Electronic energy at well bottom at 0 [K]                  -26.60553955 [Eh]

  Zero-point energy, ZPE_vib = Sum_i nu_i / 2
    Electronic ZPE          0.000 [kcal/mol]        0.000 [kJ/mol]       0.00000000 [Eh]
    Translational ZPE       0.000 [kcal/mol]        0.000 [kJ/mol]       0.00000000 [Eh]
    Rotational ZPE          0.000 [kcal/mol]        0.000 [kJ/mol]       0.00000000 [Eh]
    Vibrational ZPE        16.571 [kcal/mol]       69.333 [kJ/mol]       0.02640772 [Eh]        5795.826 [cm^-1]
  Correction ZPE           16.571 [kcal/mol]       69.333 [kJ/mol]       0.02640772 [Eh]        5795.826 [cm^-1]
  Total ZPE, Electronic energy at 0 [K]                                -26.57913182 [Eh]

  Thermal Energy, E (includes ZPE)
    Electronic E            0.000 [kcal/mol]        0.000 [kJ/mol]       0.00000000 [Eh]
    Translational E         0.889 [kcal/mol]        3.718 [kJ/mol]       0.00141628 [Eh]
    Rotational E            0.889 [kcal/mol]        3.718 [kJ/mol]       0.00141628 [Eh]
    Vibrational E          16.603 [kcal/mol]       69.465 [kJ/mol]       0.02645785 [Eh]
  Correction E             18.380 [kcal/mol]       76.902 [kJ/mol]       0.02929041 [Eh]
  Total E, Electronic energy at  298.15 [K]                            -26.57624914 [Eh]

  Enthalpy, H_trans = E_trans + k_B * T
    Electronic H            0.000 [kcal/mol]        0.000 [kJ/mol]       0.00000000 [Eh]
    Translational H         1.481 [kcal/mol]        6.197 [kJ/mol]       0.00236046 [Eh]
    Rotational H            0.889 [kcal/mol]        3.718 [kJ/mol]       0.00141628 [Eh]
    Vibrational H          16.603 [kcal/mol]       69.465 [kJ/mol]       0.02645785 [Eh]
  Correction H             18.972 [kcal/mol]       79.381 [kJ/mol]       0.03023459 [Eh]
  Total H, Enthalpy at  298.15 [K]                                     -26.57530496 [Eh]

  Gibbs free energy, G = H - T * S
    Electronic G            0.000 [kcal/mol]        0.000 [kJ/mol]       0.00000000 [Eh]
    Translational G        -8.615 [kcal/mol]      -36.047 [kJ/mol]      -0.01372959 [Eh]
    Rotational G           -3.045 [kcal/mol]      -12.742 [kJ/mol]      -0.00485300 [Eh]
    Vibrational G          16.566 [kcal/mol]       69.311 [kJ/mol]       0.02639907 [Eh]
  Correction G              4.905 [kcal/mol]       20.522 [kJ/mol]       0.00781648 [Eh]
  Total G, Free enthalpy at  298.15 [K]                                -26.59772307 [Eh]

*** Psi4 exiting successfully. Buy a developer a beer!
