                               Psi4 1.3.2 release

  ==> Input File <==

--------------------------------------------------------------------------
memory 144 GB

molecule {
0 1
C 0.0000000000 0.0000000000 0.0000000000
C 0.0000000000 0.0000000000 1.2065000000
H 0.0000000000 -0.0000000000 2.2699000000
H -0.0000000000 -0.0000000000 -1.0634000000
}

set dynamic_level 1
set basis aug-cc-pV(T+d)Z

optimize("wB97X-V")
frequencies("wB97X-V")
--------------------------------------------------------------------------

    Molecular point group: d2h
  Charge       = 0
  Multiplicity = 1
  Basis Set: AUG-CC-PV(T+D)Z
    Blend: AUG-CC-PV(T+D)Z
  Basis Set: (AUG-CC-PV(T+D)Z AUX)
    Blend: AUG-CC-PVTZ-JKFIT
  @DF-RKS Final Energy:   -77.33067712193190
    Total Energy =                        -77.3306771219319131
    Molecular point group: d2h
  Basis Set: AUG-CC-PV(T+D)Z
    Blend: AUG-CC-PV(T+D)Z
  Basis Set: (AUG-CC-PV(T+D)Z AUX)
    Blend: AUG-CC-PVTZ-JKFIT
  @DF-RKS Final Energy:   -77.33062583829593
    Total Energy =                        -77.3306258382959442
  Basis Set: AUG-CC-PV(T+D)Z
    Blend: AUG-CC-PV(T+D)Z
  Basis Set: (AUG-CC-PV(T+D)Z AUX)
    Blend: AUG-CC-PVTZ-JKFIT
  @DF-RKS Final Energy:   -77.33072329977816
    Total Energy =                        -77.3307232997781711
  Basis Set: AUG-CC-PV(T+D)Z
    Blend: AUG-CC-PV(T+D)Z
  Basis Set: (AUG-CC-PV(T+D)Z AUX)
    Blend: AUG-CC-PVTZ-JKFIT
  @DF-RKS Final Energy:   -77.33065915486011
    Total Energy =                        -77.3306591548601290
  @DF-RKS Final Energy:   -77.33068471309508
    Total Energy =                        -77.3306847130950814
  @DF-RKS Final Energy:   -77.33090176790093
    Total Energy =                        -77.3309017679009401
  @DF-RKS Final Energy:   -77.33090434501258
    Total Energy =                        -77.3309043450125699
  @DF-RKS Final Energy:   -77.33089363247844
    Total Energy =                        -77.3308936324784213
  @DF-RKS Final Energy:   -77.33089876880499
    Total Energy =                        -77.3308987688049854
  @DF-RKS Final Energy:   -77.33089442927792
    Total Energy =                        -77.3308944292779330
  @DF-RKS Final Energy:   -77.33090416614895
    Total Energy =                        -77.3309041661489402
  @DF-RKS Final Energy:   -77.33090100853109
    Total Energy =                        -77.3309010085310717
  @DF-RKS Final Energy:   -77.33090175145972
    Total Energy =                        -77.3309017514597059
  @DF-RKS Final Energy:   -77.33089904559149
    Total Energy =                        -77.3308990455914795
  @DF-RKS Final Energy:   -77.33089922333299
    Total Energy =                        -77.3308992233329917
  **** Optimization is complete! (in 3 steps) ****
    Final optimized geometry and variables:
  @DF-RKS Final Energy:   -77.33090416614969
    Total Energy =                        -77.3309041661497076
  @DF-RKS Final Energy:   -77.33090100853113
    Total Energy =                        -77.3309010085311286
  @DF-RKS Final Energy:   -77.33090175145873
    Total Energy =                        -77.3309017514587111
  @DF-RKS Final Energy:   -77.33089904559004
    Total Energy =                        -77.3308990455900442
  @DF-RKS Final Energy:   -77.33089922333225
    Total Energy =                        -77.3308992233322527
  @DF-RKS Final Energy:   -77.33090416614991
    Total Energy =                        -77.3309041661498924
  @DF-RKS Final Energy:   -77.33090100853123
    Total Energy =                        -77.3309010085312281
  @DF-RKS Final Energy:   -77.33090175145890
    Total Energy =                        -77.3309017514588959
  @DF-RKS Final Energy:   -77.33089904559006
    Total Energy =                        -77.3308990455900584
  @DF-RKS Final Energy:   -77.33089922333239
    Total Energy =                        -77.3308992233323949
  @DF-RKS Final Energy:   -77.33089340162448
    Total Energy =                        -77.3308934016244791
  @DF-RKS Final Energy:   -77.33089290849441
    Total Energy =                        -77.3308929084944197
  @DF-RKS Final Energy:   -77.33090379507486
    Total Energy =                        -77.3309037950748746
  Basis Set: AUG-CC-PV(T+D)Z
    Blend: AUG-CC-PV(T+D)Z
  Basis Set: (AUG-CC-PV(T+D)Z AUX)
    Blend: AUG-CC-PVTZ-JKFIT
  @DF-RKS Final Energy:   -77.33090380410233
    Total Energy =                        -77.3309038041023342
  Basis Set: AUG-CC-PV(T+D)Z
    Blend: AUG-CC-PV(T+D)Z
  Basis Set: (AUG-CC-PV(T+D)Z AUX)
    Blend: AUG-CC-PVTZ-JKFIT
  @DF-RKS Final Energy:   -77.33089877835376
    Total Energy =                        -77.3308987783537560
  Multiplicity = 1
  Basis Set: AUG-CC-PV(T+D)Z
    Blend: AUG-CC-PV(T+D)Z
  Basis Set: (AUG-CC-PV(T+D)Z AUX)
    Blend: AUG-CC-PVTZ-JKFIT
  @DF-RKS Final Energy:   -77.33090374378776
    Total Energy =                        -77.3309037437877720
    Molecular point group: c2v

    Geometry (in Angstrom), charge = 0, multiplicity = 1:

       Center              X                  Y                   Z               Mass
    ------------   -----------------  -----------------  -----------------  -----------------
         C           -0.000150333491     0.000000000000    -0.598053187672    12.000000000000
         C           -0.000150333491     0.000000000000     0.598053187672    12.000000000000
         H            0.001789995126     0.000000000000     1.663585316534     1.007825032230
         H            0.001789995126     0.000000000000    -1.663585316534     1.007825032230

  Charge       = 0
  Multiplicity = 1
  Basis Set: AUG-CC-PV(T+D)Z
    Blend: AUG-CC-PV(T+D)Z
  Basis Set: (AUG-CC-PV(T+D)Z AUX)
    Blend: AUG-CC-PVTZ-JKFIT

    Orbital Energies [Eh]
    ---------------------

    Doubly Occupied:

       1A1   -10.280250     1B2   -10.277629     2A1    -0.886972
       2B2    -0.686132     3A1    -0.609147     1B1    -0.400659
       4A1    -0.400659

  @DF-RKS Final Energy:   -77.33090381342515

   => Energetics <=

    Nuclear Repulsion Energy =             24.8533680097223737
    One-Electron Energy =                -152.0505177555567684
    Two-Electron Energy =                  57.6970717079411202
    DFT Exchange-Correlation Energy =      -7.8885557843854723
    Empirical Dispersion Energy =           0.0000000000000000
    VV10 Nonlocal Energy =                  0.0577300088536004
    Total Energy =                        -77.3309038134251523

  Dipole Moment: [D]
     X:     0.0041      Y:     0.0000      Z:    -0.0000     Total:     0.0041

  Vibration                       6                   7                   8
  Freq [cm^-1]                 863.5097            874.8470            885.6867
  Irrep                          B3u                 B3g                 B2g
  Reduced mass [u]              1.0848              1.5767              1.5767
  Force const [mDyne/A]         0.4766              0.7110              0.7287

  Vibration                       9                   10                  11
  Freq [cm^-1]                 944.9129           2033.9955           3374.8529
  Irrep                          B2u                  Ag                 B1u
  Reduced mass [u]              1.0848              3.6183              1.0848
  Force const [mDyne/A]         0.5707              8.8197              7.2797

  Vibration                       12
  Freq [cm^-1]                3519.8776
  Irrep                           Ag
  Reduced mass [u]              1.2513
  Force const [mDyne/A]         9.1338

  ==> Thermochemistry Components <==

  Entropy, S
    Electronic S            0.000 [cal/(mol K)]        0.000 [J/(mol K)]       0.00000000 [mEh/K] (multiplicity = 1)
    Translational S        35.704 [cal/(mol K)]      149.387 [J/(mol K)]       0.05689862 [mEh/K] (mol. weight = 26.0157 [u], P = 101325.00 [Pa])
    Rotational S           10.863 [cal/(mol K)]       45.451 [J/(mol K)]       0.01731118 [mEh/K] (symmetry no. = 2)
    Vibrational S           0.581 [cal/(mol K)]        2.433 [J/(mol K)]       0.00092654 [mEh/K]
  Total S                  47.149 [cal/(mol K)]      197.270 [J/(mol K)]       0.07513634 [mEh/K]
  Correction S              0.000 [cal/(mol K)]        0.000 [J/(mol K)]       0.00000000 [mEh/K]

  Constant volume heat capacity, Cv
    Electronic Cv           0.000 [cal/(mol K)]        0.000 [J/(mol K)]       0.00000000 [mEh/K]
    Translational Cv        2.981 [cal/(mol K)]       12.472 [J/(mol K)]       0.00475022 [mEh/K]
    Rotational Cv           1.987 [cal/(mol K)]        8.314 [J/(mol K)]       0.00316681 [mEh/K]
    Vibrational Cv          2.059 [cal/(mol K)]        8.615 [J/(mol K)]       0.00328120 [mEh/K]
  Total Cv                  7.027 [cal/(mol K)]       29.401 [J/(mol K)]       0.01119823 [mEh/K]
  Correction Cv             0.000 [cal/(mol K)]        0.000 [J/(mol K)]       0.00000000 [mEh/K]

  Constant pressure heat capacity, Cp
    Electronic Cp           0.000 [cal/(mol K)]        0.000 [J/(mol K)]       0.00000000 [mEh/K]
    Translational Cp        4.968 [cal/(mol K)]       20.786 [J/(mol K)]       0.00791703 [mEh/K]
    Rotational Cp           1.987 [cal/(mol K)]        8.314 [J/(mol K)]       0.00316681 [mEh/K]
    Vibrational Cp          2.059 [cal/(mol K)]        8.615 [J/(mol K)]       0.00328120 [mEh/K]
  Total Cp                  9.014 [cal/(mol K)]       37.715 [J/(mol K)]       0.01436504 [mEh/K]
  Correction Cp             0.000 [cal/(mol K)]        0.000 [J/(mol K)]       0.00000000 [mEh/K]

  ==> Thermochemistry Energy Analysis <==

  Raw electronic energy, E0
  Total E0, Electronic energy at well bottom at 0 [K]                  -77.33090417 [Eh]

  Zero-point energy, ZPE_vib = Sum_i nu_i / 2
    Electronic ZPE          0.000 [kcal/mol]        0.000 [kJ/mol]       0.00000000 [Eh]
    Translational ZPE       0.000 [kcal/mol]        0.000 [kJ/mol]       0.00000000 [Eh]
    Rotational ZPE          0.000 [kcal/mol]        0.000 [kJ/mol]       0.00000000 [Eh]
    Vibrational ZPE        17.866 [kcal/mol]       74.753 [kJ/mol]       0.02847182 [Eh]        6248.841 [cm^-1]
  Correction ZPE           17.866 [kcal/mol]       74.753 [kJ/mol]       0.02847182 [Eh]        6248.841 [cm^-1]
  Total ZPE, Electronic energy at 0 [K]                                -77.30243235 [Eh]

  Thermal Energy, E (includes ZPE)
    Electronic E            0.000 [kcal/mol]        0.000 [kJ/mol]       0.00000000 [Eh]
    Translational E         0.889 [kcal/mol]        3.718 [kJ/mol]       0.00141628 [Eh]
    Rotational E            0.592 [kcal/mol]        2.479 [kJ/mol]       0.00094418 [Eh]
    Vibrational E          18.007 [kcal/mol]       75.342 [kJ/mol]       0.02869613 [Eh]
  Correction E             19.488 [kcal/mol]       81.539 [kJ/mol]       0.03105660 [Eh]
  Total E, Electronic energy at  298.15 [K]                            -77.29984757 [Eh]

  Enthalpy, H_trans = E_trans + k_B * T
    Electronic H            0.000 [kcal/mol]        0.000 [kJ/mol]       0.00000000 [Eh]
    Translational H         1.481 [kcal/mol]        6.197 [kJ/mol]       0.00236046 [Eh]
    Rotational H            0.592 [kcal/mol]        2.479 [kJ/mol]       0.00094418 [Eh]
    Vibrational H          18.007 [kcal/mol]       75.342 [kJ/mol]       0.02869613 [Eh]
  Correction H             20.081 [kcal/mol]       84.018 [kJ/mol]       0.03200078 [Eh]
  Total H, Enthalpy at  298.15 [K]                                     -77.29890339 [Eh]

  Gibbs free energy, G = H - T * S
    Electronic G            0.000 [kcal/mol]        0.000 [kJ/mol]       0.00000000 [Eh]
    Translational G        -9.164 [kcal/mol]      -38.342 [kJ/mol]      -0.01460386 [Eh]
    Rotational G           -2.646 [kcal/mol]      -11.072 [kJ/mol]      -0.00421714 [Eh]
    Vibrational G          17.834 [kcal/mol]       74.616 [kJ/mol]       0.02841989 [Eh]
  Correction G              6.023 [kcal/mol]       25.202 [kJ/mol]       0.00959888 [Eh]
  Total G, Free enthalpy at  298.15 [K]                                -77.32130528 [Eh]

*** Psi4 exiting successfully. Buy a developer a beer!
