                               Psi4 1.3.2 release

  ==> Input File <==

--------------------------------------------------------------------------
memory 144 GB

molecule {
0 1
C 0.0000000000 0.0000000000 0.0000000000
C 0.0000000000 0.0000000000 1.3342000000
H 0.9234041342 0.0000000000 1.8987335198
H -0.9234041342 0.0000000000 1.8987335198
H 0.9234041342 0.0000000000 -0.5645335198
H -0.9234041342 -0.0000000000 -0.5645335198
}

set dynamic_level 1
set basis aug-cc-pV(T+d)Z

optimize("wB97X-V")
frequencies("wB97X-V")
--------------------------------------------------------------------------

    Molecular point group: d2h
  Charge       = 0
  Multiplicity = 1
  Basis Set: AUG-CC-PV(T+D)Z
    Blend: AUG-CC-PV(T+D)Z
  Basis Set: (AUG-CC-PV(T+D)Z AUX)
    Blend: AUG-CC-PVTZ-JKFIT
  @DF-RKS Final Energy:   -78.58815996852393
    Total Energy =                        -78.5881599685239252
    Molecular point group: d2h
  Basis Set: AUG-CC-PV(T+D)Z
    Blend: AUG-CC-PV(T+D)Z
  Basis Set: (AUG-CC-PV(T+D)Z AUX)
    Blend: AUG-CC-PVTZ-JKFIT
  @DF-RKS Final Energy:   -78.58813213969498
    Total Energy =                        -78.5881321396949915
  Basis Set: AUG-CC-PV(T+D)Z
    Blend: AUG-CC-PV(T+D)Z
  Basis Set: (AUG-CC-PV(T+D)Z AUX)
    Blend: AUG-CC-PVTZ-JKFIT
  @DF-RKS Final Energy:   -78.58818485601829
    Total Energy =                        -78.5881848560182874
  Basis Set: AUG-CC-PV(T+D)Z
    Blend: AUG-CC-PV(T+D)Z
  Basis Set: (AUG-CC-PV(T+D)Z AUX)
    Blend: AUG-CC-PVTZ-JKFIT
  @DF-RKS Final Energy:   -78.58814127603414
    Total Energy =                        -78.5881412760341362
  @DF-RKS Final Energy:   -78.58817128462316
    Total Energy =                        -78.5881712846231437
  @DF-RKS Final Energy:   -78.58814804105174
    Total Energy =                        -78.5881480410517668
  @DF-RKS Final Energy:   -78.58816810824425
    Total Energy =                        -78.5881681082442469
  @DF-RKS Final Energy:   -78.58827386780904
    Total Energy =                        -78.5882738678090362
  @DF-RKS Final Energy:   -78.58827271884175
    Total Energy =                        -78.5882727188417363
  @DF-RKS Final Energy:   -78.58827194129492
    Total Energy =                        -78.5882719412949200
  @DF-RKS Final Energy:   -78.58827141129052
    Total Energy =                        -78.5882714112905347
  @DF-RKS Final Energy:   -78.58826907546847
    Total Energy =                        -78.5882690754684603
  @DF-RKS Final Energy:   -78.58826861760761
    Total Energy =                        -78.5882686176076106
  @DF-RKS Final Energy:   -78.58827540038946
    Total Energy =                        -78.5882754003894775
  @DF-RKS Final Energy:   -78.58827702591455
    Total Energy =                        -78.5882770259145644
  @DF-RKS Final Energy:   -78.58827511308075
    Total Energy =                        -78.5882751130807691
  @DF-RKS Final Energy:   -78.58827584395451
    Total Energy =                        -78.5882758439545057
  @DF-RKS Final Energy:   -78.58827406678311
    Total Energy =                        -78.5882740667831143
  @DF-RKS Final Energy:   -78.58827274697732
    Total Energy =                        -78.5882727469773101
  @DF-RKS Final Energy:   -78.58827436376933
    Total Energy =                        -78.5882743637693153
  **** Optimization is complete! (in 4 steps) ****
    Final optimized geometry and variables:
  @DF-RKS Final Energy:   -78.58827085498042
    Total Energy =                        -78.5882708549804221
  @DF-RKS Final Energy:   -78.58827269397659
    Total Energy =                        -78.5882726939765917
  @DF-RKS Final Energy:   -78.58827266888834
    Total Energy =                        -78.5882726688883508
  @DF-RKS Final Energy:   -78.58826873268848
    Total Energy =                        -78.5882687326884906
  @DF-RKS Final Energy:   -78.58826875346354
    Total Energy =                        -78.5882687534635380
  @DF-RKS Final Energy:   -78.58827563259506
    Total Energy =                        -78.5882756325950567
  @DF-RKS Final Energy:   -78.58827331776527
    Total Energy =                        -78.5882733177652852
  @DF-RKS Final Energy:   -78.58826818706997
    Total Energy =                        -78.5882681870699713
  @DF-RKS Final Energy:   -78.58826818145860
    Total Energy =                        -78.5882681814586022
  @DF-RKS Final Energy:   -78.58827679710130
    Total Energy =                        -78.5882767971013010
  @DF-RKS Final Energy:   -78.58827676475326
    Total Energy =                        -78.5882767647532461
  @DF-RKS Final Energy:   -78.58827523004976
    Total Energy =                        -78.5882752300497742
  @DF-RKS Final Energy:   -78.58827366450528
    Total Energy =                        -78.5882736645052802
  @DF-RKS Final Energy:   -78.58827488518789
    Total Energy =                        -78.5882748851878716
  @DF-RKS Final Energy:   -78.58827489309823
    Total Energy =                        -78.5882748930982444
  @DF-RKS Final Energy:   -78.58827682350181
    Total Energy =                        -78.5882768235018290
  Basis Set: AUG-CC-PV(T+D)Z
    Blend: AUG-CC-PV(T+D)Z
  Basis Set: (AUG-CC-PV(T+D)Z AUX)
    Blend: AUG-CC-PVTZ-JKFIT
  @DF-RKS Final Energy:   -78.58827347763784
    Total Energy =                        -78.5882734776378413
  Basis Set: AUG-CC-PV(T+D)Z
    Blend: AUG-CC-PV(T+D)Z
  Basis Set: (AUG-CC-PV(T+D)Z AUX)
    Blend: AUG-CC-PVTZ-JKFIT
  @DF-RKS Final Energy:   -78.58827579932202
    Total Energy =                        -78.5882757993220196
  Multiplicity = 1
  Basis Set: AUG-CC-PV(T+D)Z
    Blend: AUG-CC-PV(T+D)Z
  Basis Set: (AUG-CC-PV(T+D)Z AUX)
    Blend: AUG-CC-PVTZ-JKFIT
  @DF-RKS Final Energy:   -78.58827602686010
    Total Energy =                        -78.5882760268600862
    Molecular point group: c2v

    Geometry (in Angstrom), charge = 0, multiplicity = 1:

       Center              X                  Y                   Z               Mass
    ------------   -----------------  -----------------  -----------------  -----------------
         C           -0.000204817217     0.000000000000    -0.662416302527    12.000000000000
         C           -0.000204817217     0.000000000000     0.662416302527    12.000000000000
         H            0.925702120903     0.000000000000     1.229298439172     1.007825032230
         H           -0.923263397384     0.000000000000     1.231934033514     1.007825032230
         H            0.925702120903     0.000000000000    -1.229298439172     1.007825032230
         H           -0.923263397384     0.000000000000    -1.231934033514     1.007825032230

  Charge       = 0
  Multiplicity = 1
  Basis Set: AUG-CC-PV(T+D)Z
    Blend: AUG-CC-PV(T+D)Z
  Basis Set: (AUG-CC-PV(T+D)Z AUX)
    Blend: AUG-CC-PVTZ-JKFIT

    Orbital Energies [Eh]
    ---------------------

    Doubly Occupied:

       1A1   -10.271424     1B2   -10.270461     2A1    -0.895943
       2B2    -0.701645     3A1    -0.584965     4A1    -0.529725
       3B2    -0.459159     1B1    -0.378876

  @DF-RKS Final Energy:   -78.58827604740303

   => Energetics <=

    Nuclear Repulsion Energy =             33.4579686470468545
    One-Electron Energy =                -170.4397095478104234
    Two-Electron Energy =                  66.6416672597161295
    DFT Exchange-Correlation Energy =      -8.3131063602231521
    Empirical Dispersion Energy =           0.0000000000000000
    VV10 Nonlocal Energy =                  0.0649039538675675
    Total Energy =                        -78.5882760474030135

  Dipole Moment: [D]
     X:    -0.0006      Y:     0.0000      Z:    -0.0000     Total:     0.0006

  Vibration                       7                   8                   9
  Freq [cm^-1]                 827.9061           1005.9956           1033.3620
  Irrep                          B3u                 B2u                 B3g
  Reduced mass [u]              1.0424              1.1607              1.5182
  Force const [mDyne/A]         0.4210              0.6921              0.9552

  Vibration                       10                  11                  12
  Freq [cm^-1]                1065.9361           1254.0952           1398.7876
  Irrep                           Au                 B2g                  Ag
  Reduced mass [u]              1.0078              1.5243              1.1951
  Force const [mDyne/A]         0.6747              1.4125              1.3777

  Vibration                       13                  14                  15
  Freq [cm^-1]                1475.6910           1728.2796           3145.3009
  Irrep                          B1u                  Ag                 B1u
  Reduced mass [u]              1.1125              3.3411              1.0472
  Force const [mDyne/A]         1.4274              5.8798              6.1039

  Vibration                       16                  17                  18
  Freq [cm^-1]                3166.6309           3221.7784           3252.1933
  Irrep                           Ag                 B2g                 B3u
  Reduced mass [u]              1.0732              1.1158              1.1180
  Force const [mDyne/A]         6.3408              6.8240              6.9670

  ==> Thermochemistry Components <==

  Entropy, S
    Electronic S            0.000 [cal/(mol K)]        0.000 [J/(mol K)]       0.00000000 [mEh/K] (multiplicity = 1)
    Translational S        35.927 [cal/(mol K)]      150.318 [J/(mol K)]       0.05725309 [mEh/K] (mol. weight = 28.0313 [u], P = 101325.00 [Pa])
    Rotational S           15.846 [cal/(mol K)]       66.298 [J/(mol K)]       0.02525146 [mEh/K] (symmetry no. = 4)
    Vibrational S           0.499 [cal/(mol K)]        2.088 [J/(mol K)]       0.00079529 [mEh/K]
  Total S                  52.271 [cal/(mol K)]      218.704 [J/(mol K)]       0.08329985 [mEh/K]
  Correction S              0.000 [cal/(mol K)]        0.000 [J/(mol K)]       0.00000000 [mEh/K]

  Constant volume heat capacity, Cv
    Electronic Cv           0.000 [cal/(mol K)]        0.000 [J/(mol K)]       0.00000000 [mEh/K]
    Translational Cv        2.981 [cal/(mol K)]       12.472 [J/(mol K)]       0.00475022 [mEh/K]
    Rotational Cv           2.981 [cal/(mol K)]       12.472 [J/(mol K)]       0.00475022 [mEh/K]
    Vibrational Cv          2.022 [cal/(mol K)]        8.461 [J/(mol K)]       0.00322278 [mEh/K]
  Total Cv                  7.984 [cal/(mol K)]       33.405 [J/(mol K)]       0.01272321 [mEh/K]
  Correction Cv             0.000 [cal/(mol K)]        0.000 [J/(mol K)]       0.00000000 [mEh/K]

  Constant pressure heat capacity, Cp
    Electronic Cp           0.000 [cal/(mol K)]        0.000 [J/(mol K)]       0.00000000 [mEh/K]
    Translational Cp        4.968 [cal/(mol K)]       20.786 [J/(mol K)]       0.00791703 [mEh/K]
    Rotational Cp           2.981 [cal/(mol K)]       12.472 [J/(mol K)]       0.00475022 [mEh/K]
    Vibrational Cp          2.022 [cal/(mol K)]        8.461 [J/(mol K)]       0.00322278 [mEh/K]
  Total Cp                  9.971 [cal/(mol K)]       41.719 [J/(mol K)]       0.01589002 [mEh/K]
  Correction Cp             0.000 [cal/(mol K)]        0.000 [J/(mol K)]       0.00000000 [mEh/K]

  ==> Thermochemistry Energy Analysis <==

  Raw electronic energy, E0
  Total E0, Electronic energy at well bottom at 0 [K]                  -78.58827730 [Eh]

  Zero-point energy, ZPE_vib = Sum_i nu_i / 2
    Electronic ZPE          0.000 [kcal/mol]        0.000 [kJ/mol]       0.00000000 [Eh]
    Translational ZPE       0.000 [kcal/mol]        0.000 [kJ/mol]       0.00000000 [Eh]
    Rotational ZPE          0.000 [kcal/mol]        0.000 [kJ/mol]       0.00000000 [Eh]
    Vibrational ZPE        32.274 [kcal/mol]      135.034 [kJ/mol]       0.05143181 [Eh]       11287.978 [cm^-1]
  Correction ZPE           32.274 [kcal/mol]      135.034 [kJ/mol]       0.05143181 [Eh]       11287.978 [cm^-1]
  Total ZPE, Electronic energy at 0 [K]                                -78.53684549 [Eh]

  Thermal Energy, E (includes ZPE)
    Electronic E            0.000 [kcal/mol]        0.000 [kJ/mol]       0.00000000 [Eh]
    Translational E         0.889 [kcal/mol]        3.718 [kJ/mol]       0.00141628 [Eh]
    Rotational E            0.889 [kcal/mol]        3.718 [kJ/mol]       0.00141628 [Eh]
    Vibrational E          32.397 [kcal/mol]      135.548 [kJ/mol]       0.05162769 [Eh]
  Correction E             34.174 [kcal/mol]      142.985 [kJ/mol]       0.05446024 [Eh]
  Total E, Electronic energy at  298.15 [K]                            -78.53381706 [Eh]

  Enthalpy, H_trans = E_trans + k_B * T
    Electronic H            0.000 [kcal/mol]        0.000 [kJ/mol]       0.00000000 [Eh]
    Translational H         1.481 [kcal/mol]        6.197 [kJ/mol]       0.00236046 [Eh]
    Rotational H            0.889 [kcal/mol]        3.718 [kJ/mol]       0.00141628 [Eh]
    Vibrational H          32.397 [kcal/mol]      135.548 [kJ/mol]       0.05162769 [Eh]
  Correction H             34.767 [kcal/mol]      145.464 [kJ/mol]       0.05540443 [Eh]
  Total H, Enthalpy at  298.15 [K]                                     -78.53287287 [Eh]

  Gibbs free energy, G = H - T * S
    Electronic G            0.000 [kcal/mol]        0.000 [kJ/mol]       0.00000000 [Eh]
    Translational G        -9.230 [kcal/mol]      -38.620 [kJ/mol]      -0.01470955 [Eh]
    Rotational G           -3.836 [kcal/mol]      -16.048 [kJ/mol]      -0.00611245 [Eh]
    Vibrational G          32.248 [kcal/mol]      134.926 [kJ/mol]       0.05139057 [Eh]
  Correction G             19.182 [kcal/mol]       80.258 [kJ/mol]       0.03056858 [Eh]
  Total G, Free enthalpy at  298.15 [K]                                -78.55770872 [Eh]

*** Psi4 exiting successfully. Buy a developer a beer!
