                               Psi4 1.3.2 release

  ==> Input File <==

--------------------------------------------------------------------------
memory 144 GB

molecule {
0 1
C 0.0000000000 0.0000000000 0.0000000000
Cl 0.0000000000 0.0000000000 1.7182578700
Cl 1.6229007750 0.0000000000 -0.5644494507
}

set dynamic_level 1
set basis aug-cc-pV(T+d)Z

optimize("wB97X-V")
frequencies("wB97X-V")
--------------------------------------------------------------------------

    Molecular point group: c2v
  Charge       = 0
  Multiplicity = 1
  Basis Set: AUG-CC-PV(T+D)Z
    Blend: AUG-CC-PV(T+D)Z
  Basis Set: (AUG-CC-PV(T+D)Z AUX)
    Blend: AUG-CC-PVTZ-JKFIT
  @DF-RKS Final Energy:  -958.30090297609172
    Total Energy =                       -958.3009029760917201
    Molecular point group: c2v
  Basis Set: AUG-CC-PV(T+D)Z
    Blend: AUG-CC-PV(T+D)Z
  Basis Set: (AUG-CC-PV(T+D)Z AUX)
    Blend: AUG-CC-PVTZ-JKFIT
  @DF-RKS Final Energy:  -958.30089328394126
    Total Energy =                       -958.3008932839412637
  Basis Set: AUG-CC-PV(T+D)Z
    Blend: AUG-CC-PV(T+D)Z
  Basis Set: (AUG-CC-PV(T+D)Z AUX)
    Blend: AUG-CC-PVTZ-JKFIT
  @DF-RKS Final Energy:  -958.30091219298129
    Total Energy =                       -958.3009121929811727
  Basis Set: AUG-CC-PV(T+D)Z
    Blend: AUG-CC-PV(T+D)Z
  Basis Set: (AUG-CC-PV(T+D)Z AUX)
    Blend: AUG-CC-PVTZ-JKFIT
  @DF-RKS Final Energy:  -958.30090901903918
    Total Energy =                       -958.3009090190390680
  @DF-RKS Final Energy:  -958.30089677604985
    Total Energy =                       -958.3008967760498535
  @DF-RKS Final Energy:  -958.30102396655991
    Total Energy =                       -958.3010239665599101
  @DF-RKS Final Energy:  -958.30101923187783
    Total Energy =                       -958.3010192318779445
  @DF-RKS Final Energy:  -958.30102821287596
    Total Energy =                       -958.3010282128759627
  @DF-RKS Final Energy:  -958.30102438253721
    Total Energy =                       -958.3010243825370935
  @DF-RKS Final Energy:  -958.30102338307506
    Total Energy =                       -958.3010233830750622
  @DF-RKS Final Energy:  -958.30104604408962
    Total Energy =                       -958.3010460440897305
  @DF-RKS Final Energy:  -958.30104657243328
    Total Energy =                       -958.3010465724330516
  @DF-RKS Final Energy:  -958.30104502856932
    Total Energy =                       -958.3010450285693196
  @DF-RKS Final Energy:  -958.30104594126703
    Total Energy =                       -958.3010459412669206
  @DF-RKS Final Energy:  -958.30104598336629
    Total Energy =                       -958.3010459833662935
  @DF-RKS Final Energy:  -958.30104680638215
    Total Energy =                       -958.3010468063821463
  @DF-RKS Final Energy:  -958.30104655031971
    Total Energy =                       -958.3010465503195974
  @DF-RKS Final Energy:  -958.30104657203435
    Total Energy =                       -958.3010465720342381
  @DF-RKS Final Energy:  -958.30104672569018
    Total Energy =                       -958.3010467256901848
  @DF-RKS Final Energy:  -958.30104671947515
    Total Energy =                       -958.3010467194751527
  **** Optimization is complete! (in 4 steps) ****
    Final optimized geometry and variables:
  @DF-RKS Final Energy:  -958.30104680674810
    Total Energy =                       -958.3010468067481042
  @DF-RKS Final Energy:  -958.30104655083289
    Total Energy =                       -958.3010465508330071
  @DF-RKS Final Energy:  -958.30104657129061
    Total Energy =                       -958.3010465712906125
  @DF-RKS Final Energy:  -958.30104672634604
    Total Energy =                       -958.3010467263459304
  @DF-RKS Final Energy:  -958.30104671880395
    Total Energy =                       -958.3010467188039456
  @DF-RKS Final Energy:  -958.30104680674765
    Total Energy =                       -958.3010468067477632
  @DF-RKS Final Energy:  -958.30104655083233
    Total Energy =                       -958.3010465508323250
  @DF-RKS Final Energy:  -958.30104657129061
    Total Energy =                       -958.3010465712904988
  @DF-RKS Final Energy:  -958.30104672634525
    Total Energy =                       -958.3010467263451346
  Basis Set: AUG-CC-PV(T+D)Z
    Blend: AUG-CC-PV(T+D)Z
  Basis Set: (AUG-CC-PV(T+D)Z AUX)
    Blend: AUG-CC-PVTZ-JKFIT
  @DF-RKS Final Energy:  -958.30104671880508
    Total Energy =                       -958.3010467188050825
  Basis Set: AUG-CC-PV(T+D)Z
    Blend: AUG-CC-PV(T+D)Z
  Basis Set: (AUG-CC-PV(T+D)Z AUX)
    Blend: AUG-CC-PVTZ-JKFIT
  @DF-RKS Final Energy:  -958.30104662223278
    Total Energy =                       -958.3010466222327750
  Multiplicity = 1
  Basis Set: AUG-CC-PV(T+D)Z
    Blend: AUG-CC-PV(T+D)Z
  Basis Set: (AUG-CC-PV(T+D)Z AUX)
    Blend: AUG-CC-PVTZ-JKFIT
  @DF-RKS Final Energy:  -958.30104660847735
    Total Energy =                       -958.3010466084773498
    Molecular point group: cs

    Geometry (in Angstrom), charge = 0, multiplicity = 1:

       Center              X                  Y                   Z               Mass
    ------------   -----------------  -----------------  -----------------  -----------------
         C            0.000000000000    -0.000681070364    -0.841443879910    12.000000000000
         CL           0.000000000000     1.391618346316     0.144458795445    34.968852682000
         CL           0.000000000000    -1.391384628486     0.144293216259    34.968852682000

  Charge       = 0
  Multiplicity = 1
  Basis Set: AUG-CC-PV(T+D)Z
    Blend: AUG-CC-PV(T+D)Z
  Basis Set: (AUG-CC-PV(T+D)Z AUX)
    Blend: AUG-CC-PVTZ-JKFIT

    Orbital Energies [Eh]
    ---------------------

    Doubly Occupied:

       1Ap  -101.598041     2Ap  -101.597773     3Ap   -10.434677
       4Ap    -9.613963     5Ap    -9.613674     6Ap    -7.368576
       7Ap    -7.368294     1App   -7.363297     2App   -7.363002
       8Ap    -7.359658     9Ap    -7.359373    10Ap    -1.079070
      11Ap    -0.992139    12Ap    -0.731354    13Ap    -0.581724
      14Ap    -0.537864     3App   -0.533325     4App   -0.458895
      15Ap    -0.438159    16Ap    -0.366002

  @DF-RKS Final Energy:  -958.30104649670739

   => Energetics <=

    Nuclear Repulsion Energy =            118.2553902571761597
    One-Electron Energy =               -1555.9821077553510804
    Two-Electron Energy =                 525.6834537598373345
    DFT Exchange-Correlation Energy =     -46.4231232333189610
    Empirical Dispersion Energy =           0.0000000000000000
    VV10 Nonlocal Energy =                  0.1653404749489949
    Total Energy =                       -958.3010464967074995

  Dipole Moment: [D]
     X:     0.0000      Y:    -0.0078      Z:     1.1379     Total:     1.1380

  Vibration                       7                   8                   9
  Freq [cm^-1]                 351.8373            757.3120            809.5773
  Irrep                           A1                  A1                  B2
  Reduced mass [u]             29.2209             14.3489             13.8662
  Force const [mDyne/A]         2.1312              4.8486              5.3546

  ==> Thermochemistry Components <==

  Entropy, S
    Electronic S            0.000 [cal/(mol K)]        0.000 [J/(mol K)]       0.00000000 [mEh/K] (multiplicity = 1)
    Translational S        39.124 [cal/(mol K)]      163.696 [J/(mol K)]       0.06234835 [mEh/K] (mol. weight = 81.9377 [u], P = 101325.00 [Pa])
    Rotational S           22.327 [cal/(mol K)]       93.418 [J/(mol K)]       0.03558085 [mEh/K] (symmetry no. = 2)
    Vibrational S           1.603 [cal/(mol K)]        6.705 [J/(mol K)]       0.00255389 [mEh/K]
  Total S                  63.054 [cal/(mol K)]      263.818 [J/(mol K)]       0.10048309 [mEh/K]
  Correction S              0.000 [cal/(mol K)]        0.000 [J/(mol K)]       0.00000000 [mEh/K]

  Constant volume heat capacity, Cv
    Electronic Cv           0.000 [cal/(mol K)]        0.000 [J/(mol K)]       0.00000000 [mEh/K]
    Translational Cv        2.981 [cal/(mol K)]       12.472 [J/(mol K)]       0.00475022 [mEh/K]
    Rotational Cv           2.981 [cal/(mol K)]       12.472 [J/(mol K)]       0.00475022 [mEh/K]
    Vibrational Cv          2.930 [cal/(mol K)]       12.260 [J/(mol K)]       0.00466961 [mEh/K]
  Total Cv                  8.892 [cal/(mol K)]       37.203 [J/(mol K)]       0.01417004 [mEh/K]
  Correction Cv             0.000 [cal/(mol K)]        0.000 [J/(mol K)]       0.00000000 [mEh/K]

  Constant pressure heat capacity, Cp
    Electronic Cp           0.000 [cal/(mol K)]        0.000 [J/(mol K)]       0.00000000 [mEh/K]
    Translational Cp        4.968 [cal/(mol K)]       20.786 [J/(mol K)]       0.00791703 [mEh/K]
    Rotational Cp           2.981 [cal/(mol K)]       12.472 [J/(mol K)]       0.00475022 [mEh/K]
    Vibrational Cp          2.930 [cal/(mol K)]       12.260 [J/(mol K)]       0.00466961 [mEh/K]
  Total Cp                 10.879 [cal/(mol K)]       45.518 [J/(mol K)]       0.01733685 [mEh/K]
  Correction Cp             0.000 [cal/(mol K)]        0.000 [J/(mol K)]       0.00000000 [mEh/K]

  ==> Thermochemistry Energy Analysis <==

  Raw electronic energy, E0
  Total E0, Electronic energy at well bottom at 0 [K]                 -958.30104681 [Eh]

  Zero-point energy, ZPE_vib = Sum_i nu_i / 2
    Electronic ZPE          0.000 [kcal/mol]        0.000 [kJ/mol]       0.00000000 [Eh]
    Translational ZPE       0.000 [kcal/mol]        0.000 [kJ/mol]       0.00000000 [Eh]
    Rotational ZPE          0.000 [kcal/mol]        0.000 [kJ/mol]       0.00000000 [Eh]
    Vibrational ZPE         2.743 [kcal/mol]       11.477 [kJ/mol]       0.00437118 [Eh]         959.363 [cm^-1]
  Correction ZPE            2.743 [kcal/mol]       11.477 [kJ/mol]       0.00437118 [Eh]         959.363 [cm^-1]
  Total ZPE, Electronic energy at 0 [K]                               -958.29667563 [Eh]

  Thermal Energy, E (includes ZPE)
    Electronic E            0.000 [kcal/mol]        0.000 [kJ/mol]       0.00000000 [Eh]
    Translational E         0.889 [kcal/mol]        3.718 [kJ/mol]       0.00141628 [Eh]
    Rotational E            0.889 [kcal/mol]        3.718 [kJ/mol]       0.00141628 [Eh]
    Vibrational E           3.073 [kcal/mol]       12.859 [kJ/mol]       0.00489777 [Eh]
  Correction E              4.851 [kcal/mol]       20.296 [kJ/mol]       0.00773033 [Eh]
  Total E, Electronic energy at  298.15 [K]                           -958.29331648 [Eh]

  Enthalpy, H_trans = E_trans + k_B * T
    Electronic H            0.000 [kcal/mol]        0.000 [kJ/mol]       0.00000000 [Eh]
    Translational H         1.481 [kcal/mol]        6.197 [kJ/mol]       0.00236046 [Eh]
    Rotational H            0.889 [kcal/mol]        3.718 [kJ/mol]       0.00141628 [Eh]
    Vibrational H           3.073 [kcal/mol]       12.859 [kJ/mol]       0.00489777 [Eh]
  Correction H              5.443 [kcal/mol]       22.775 [kJ/mol]       0.00867451 [Eh]
  Total H, Enthalpy at  298.15 [K]                                    -958.29237230 [Eh]

  Gibbs free energy, G = H - T * S
    Electronic G            0.000 [kcal/mol]        0.000 [kJ/mol]       0.00000000 [Eh]
    Translational G       -10.184 [kcal/mol]      -42.608 [kJ/mol]      -0.01622870 [Eh]
    Rotational G           -5.768 [kcal/mol]      -24.134 [kJ/mol]      -0.00919215 [Eh]
    Vibrational G           2.596 [kcal/mol]       10.860 [kJ/mol]       0.00413633 [Eh]
  Correction G            -13.356 [kcal/mol]      -55.883 [kJ/mol]      -0.02128452 [Eh]
  Total G, Free enthalpy at  298.15 [K]                               -958.32233133 [Eh]

*** Psi4 exiting successfully. Buy a developer a beer!
