                               Psi4 1.3.2 release

  ==> Input File <==

--------------------------------------------------------------------------
memory 144 GB

molecule {
0 1
C 0.0000000000 0.0000000000 0.0000000000
F 0.0000000000 0.0000000000 1.2971000000
F 1.2538059978 0.0000000000 -0.3323235319
}

set dynamic_level 1
set basis aug-cc-pV(T+d)Z

optimize("wB97X-V")
frequencies("wB97X-V")
--------------------------------------------------------------------------

    Molecular point group: c2v
  Charge       = 0
  Multiplicity = 1
  Basis Set: AUG-CC-PV(T+D)Z
    Blend: AUG-CC-PV(T+D)Z
  Basis Set: (AUG-CC-PV(T+D)Z AUX)
    Blend: AUG-CC-PVTZ-JKFIT
  @DF-RKS Final Energy:  -237.71967384588686
    Total Energy =                       -237.7196738458868879
    Molecular point group: c2v
  Basis Set: AUG-CC-PV(T+D)Z
    Blend: AUG-CC-PV(T+D)Z
  Basis Set: (AUG-CC-PV(T+D)Z AUX)
    Blend: AUG-CC-PVTZ-JKFIT
  @DF-RKS Final Energy:  -237.71968412910158
    Total Energy =                       -237.7196841291015232
  Basis Set: AUG-CC-PV(T+D)Z
    Blend: AUG-CC-PV(T+D)Z
  Basis Set: (AUG-CC-PV(T+D)Z AUX)
    Blend: AUG-CC-PVTZ-JKFIT
  @DF-RKS Final Energy:  -237.71966221302921
    Total Energy =                       -237.7196622130292099
  Basis Set: AUG-CC-PV(T+D)Z
    Blend: AUG-CC-PV(T+D)Z
  Basis Set: (AUG-CC-PV(T+D)Z AUX)
    Blend: AUG-CC-PVTZ-JKFIT
  @DF-RKS Final Energy:  -237.71966744600482
    Total Energy =                       -237.7196674460048200
  @DF-RKS Final Energy:  -237.71967962942952
    Total Energy =                       -237.7196796294295211
  @DF-RKS Final Energy:  -237.71972240017354
    Total Energy =                       -237.7197224001735663
  @DF-RKS Final Energy:  -237.71972484150925
    Total Energy =                       -237.7197248415092474
  @DF-RKS Final Energy:  -237.71971863297986
    Total Energy =                       -237.7197186329798626
  @DF-RKS Final Energy:  -237.71972040970226
    Total Energy =                       -237.7197204097022905
  @DF-RKS Final Energy:  -237.71972378473453
    Total Energy =                       -237.7197237847345264
  @DF-RKS Final Energy:  -237.71972663267192
    Total Energy =                       -237.7197266326719216
  @DF-RKS Final Energy:  -237.71972598730494
    Total Energy =                       -237.7197259873049404
  @DF-RKS Final Energy:  -237.71972595664943
    Total Energy =                       -237.7197259566493983
  @DF-RKS Final Energy:  -237.71972626370720
    Total Energy =                       -237.7197262637072015
  @DF-RKS Final Energy:  -237.71972639970247
    Total Energy =                       -237.7197263997024663
  **** Optimization is complete! (in 3 steps) ****
    Final optimized geometry and variables:
  @DF-RKS Final Energy:  -237.71972663267172
    Total Energy =                       -237.7197266326717227
  @DF-RKS Final Energy:  -237.71972598730525
    Total Energy =                       -237.7197259873052531
  @DF-RKS Final Energy:  -237.71972595664960
    Total Energy =                       -237.7197259566495973
  @DF-RKS Final Energy:  -237.71972626370686
    Total Energy =                       -237.7197262637068604
  @DF-RKS Final Energy:  -237.71972639970258
    Total Energy =                       -237.7197263997026084
  @DF-RKS Final Energy:  -237.71972663267209
    Total Energy =                       -237.7197266326720637
  @DF-RKS Final Energy:  -237.71972598730525
    Total Energy =                       -237.7197259873052531
  @DF-RKS Final Energy:  -237.71972595664977
    Total Energy =                       -237.7197259566497678
  @DF-RKS Final Energy:  -237.71972626370709
    Total Energy =                       -237.7197262637070878
  Basis Set: AUG-CC-PV(T+D)Z
    Blend: AUG-CC-PV(T+D)Z
  Basis Set: (AUG-CC-PV(T+D)Z AUX)
    Blend: AUG-CC-PVTZ-JKFIT
  @DF-RKS Final Energy:  -237.71972639970278
    Total Energy =                       -237.7197263997027790
  Basis Set: AUG-CC-PV(T+D)Z
    Blend: AUG-CC-PV(T+D)Z
  Basis Set: (AUG-CC-PV(T+D)Z AUX)
    Blend: AUG-CC-PVTZ-JKFIT
  @DF-RKS Final Energy:  -237.71972611300797
    Total Energy =                       -237.7197261130080221
  Multiplicity = 1
  Basis Set: AUG-CC-PV(T+D)Z
    Blend: AUG-CC-PV(T+D)Z
  Basis Set: (AUG-CC-PV(T+D)Z AUX)
    Blend: AUG-CC-PVTZ-JKFIT
  @DF-RKS Final Energy:  -237.71972600223324
    Total Energy =                       -237.7197260022332443
    Molecular point group: cs

    Geometry (in Angstrom), charge = 0, multiplicity = 1:

       Center              X                  Y                   Z               Mass
    ------------   -----------------  -----------------  -----------------  -----------------
         C            0.000000000000    -0.000622678608    -0.605509069255    12.000000000000
         F            0.000000000000     1.030587969650     0.191381520851    18.998403162730
         F            0.000000000000    -1.030194665896     0.191077403134    18.998403162730

  Charge       = 0
  Multiplicity = 1
  Basis Set: AUG-CC-PV(T+D)Z
    Blend: AUG-CC-PV(T+D)Z
  Basis Set: (AUG-CC-PV(T+D)Z AUX)
    Blend: AUG-CC-PVTZ-JKFIT

    Orbital Energies [Eh]
    ---------------------

    Doubly Occupied:

       1Ap   -24.848826     2Ap   -24.848184     3Ap   -10.483157
       4Ap    -1.477360     5Ap    -1.399654     6Ap    -0.837119
       7Ap    -0.724659     1App   -0.681381     8Ap    -0.676613
       2App   -0.599473     9Ap    -0.573458    10Ap    -0.422128

  @DF-RKS Final Energy:  -237.71972601346462

   => Energetics <=

    Nuclear Repulsion Energy =             64.6776964691196099
    One-Electron Energy =                -456.9627153362628746
    Two-Electron Energy =                 173.2948292627538365
    DFT Exchange-Correlation Energy =     -18.8301525604541240
    Empirical Dispersion Energy =           0.0000000000000000
    VV10 Nonlocal Energy =                  0.1006161513789109
    Total Energy =                       -237.7197260134646513

  Dipole Moment: [D]
     X:     0.0000      Y:    -0.0080      Z:     0.5968     Total:     0.5968

  Vibration                       7                   8                   9
  Freq [cm^-1]                 676.9685           1144.1089           1254.8452
  Irrep                           A1                  B2                  A1
  Reduced mass [u]             17.7447             13.6915             13.8415
  Force const [mDyne/A]         4.7913             10.5594             12.8414

  ==> Thermochemistry Components <==

  Entropy, S
    Electronic S            0.000 [cal/(mol K)]        0.000 [J/(mol K)]       0.00000000 [mEh/K] (multiplicity = 1)
    Translational S        37.652 [cal/(mol K)]      157.535 [J/(mol K)]       0.06000175 [mEh/K] (mol. weight = 49.9968 [u], P = 101325.00 [Pa])
    Rotational S           19.445 [cal/(mol K)]       81.358 [J/(mol K)]       0.03098769 [mEh/K] (symmetry no. = 2)
    Vibrational S           0.420 [cal/(mol K)]        1.755 [J/(mol K)]       0.00066863 [mEh/K]
  Total S                  57.516 [cal/(mol K)]      240.648 [J/(mol K)]       0.09165806 [mEh/K]
  Correction S              0.000 [cal/(mol K)]        0.000 [J/(mol K)]       0.00000000 [mEh/K]

  Constant volume heat capacity, Cv
    Electronic Cv           0.000 [cal/(mol K)]        0.000 [J/(mol K)]       0.00000000 [mEh/K]
    Translational Cv        2.981 [cal/(mol K)]       12.472 [J/(mol K)]       0.00475022 [mEh/K]
    Rotational Cv           2.981 [cal/(mol K)]       12.472 [J/(mol K)]       0.00475022 [mEh/K]
    Vibrational Cv          1.290 [cal/(mol K)]        5.397 [J/(mol K)]       0.00205571 [mEh/K]
  Total Cv                  7.252 [cal/(mol K)]       30.341 [J/(mol K)]       0.01155614 [mEh/K]
  Correction Cv             0.000 [cal/(mol K)]        0.000 [J/(mol K)]       0.00000000 [mEh/K]

  Constant pressure heat capacity, Cp
    Electronic Cp           0.000 [cal/(mol K)]        0.000 [J/(mol K)]       0.00000000 [mEh/K]
    Translational Cp        4.968 [cal/(mol K)]       20.786 [J/(mol K)]       0.00791703 [mEh/K]
    Rotational Cp           2.981 [cal/(mol K)]       12.472 [J/(mol K)]       0.00475022 [mEh/K]
    Vibrational Cp          1.290 [cal/(mol K)]        5.397 [J/(mol K)]       0.00205571 [mEh/K]
  Total Cp                  9.239 [cal/(mol K)]       38.655 [J/(mol K)]       0.01472295 [mEh/K]
  Correction Cp             0.000 [cal/(mol K)]        0.000 [J/(mol K)]       0.00000000 [mEh/K]

  ==> Thermochemistry Energy Analysis <==

  Raw electronic energy, E0
  Total E0, Electronic energy at well bottom at 0 [K]                 -237.71972663 [Eh]

  Zero-point energy, ZPE_vib = Sum_i nu_i / 2
    Electronic ZPE          0.000 [kcal/mol]        0.000 [kJ/mol]       0.00000000 [Eh]
    Translational ZPE       0.000 [kcal/mol]        0.000 [kJ/mol]       0.00000000 [Eh]
    Rotational ZPE          0.000 [kcal/mol]        0.000 [kJ/mol]       0.00000000 [Eh]
    Vibrational ZPE         4.397 [kcal/mol]       18.398 [kJ/mol]       0.00700747 [Eh]        1537.961 [cm^-1]
  Correction ZPE            4.397 [kcal/mol]       18.398 [kJ/mol]       0.00700747 [Eh]        1537.961 [cm^-1]
  Total ZPE, Electronic energy at 0 [K]                               -237.71271917 [Eh]

  Thermal Energy, E (includes ZPE)
    Electronic E            0.000 [kcal/mol]        0.000 [kJ/mol]       0.00000000 [Eh]
    Translational E         0.889 [kcal/mol]        3.718 [kJ/mol]       0.00141628 [Eh]
    Rotational E            0.889 [kcal/mol]        3.718 [kJ/mol]       0.00141628 [Eh]
    Vibrational E           4.496 [kcal/mol]       18.809 [kJ/mol]       0.00716411 [Eh]
  Correction E              6.273 [kcal/mol]       26.246 [kJ/mol]       0.00999667 [Eh]
  Total E, Electronic energy at  298.15 [K]                           -237.70972997 [Eh]

  Enthalpy, H_trans = E_trans + k_B * T
    Electronic H            0.000 [kcal/mol]        0.000 [kJ/mol]       0.00000000 [Eh]
    Translational H         1.481 [kcal/mol]        6.197 [kJ/mol]       0.00236046 [Eh]
    Rotational H            0.889 [kcal/mol]        3.718 [kJ/mol]       0.00141628 [Eh]
    Vibrational H           4.496 [kcal/mol]       18.809 [kJ/mol]       0.00716411 [Eh]
  Correction H              6.865 [kcal/mol]       28.725 [kJ/mol]       0.01094085 [Eh]
  Total H, Enthalpy at  298.15 [K]                                    -237.70878578 [Eh]

  Gibbs free energy, G = H - T * S
    Electronic G            0.000 [kcal/mol]        0.000 [kJ/mol]       0.00000000 [Eh]
    Translational G        -9.745 [kcal/mol]      -40.772 [kJ/mol]      -0.01552906 [Eh]
    Rotational G           -4.909 [kcal/mol]      -20.539 [kJ/mol]      -0.00782270 [Eh]
    Vibrational G           4.370 [kcal/mol]       18.286 [kJ/mol]       0.00696476 [Eh]
  Correction G            -10.283 [kcal/mol]      -43.024 [kJ/mol]      -0.01638700 [Eh]
  Total G, Free enthalpy at  298.15 [K]                               -237.73611363 [Eh]

*** Psi4 exiting successfully. Buy a developer a beer!
