                               Psi4 1.3.2 release

  ==> Input File <==

--------------------------------------------------------------------------
memory 144 GB

molecule {
0 1
Cl 0.0000000000 0.0000000000 0.0000000000
Cl 0.0000000000 0.0000000000 1.9965761200
}

set dynamic_level 1
set basis aug-cc-pV(T+d)Z

optimize("wB97X-V")
frequencies("wB97X-V")
--------------------------------------------------------------------------

    Molecular point group: d2h
  Charge       = 0
  Multiplicity = 1
  Basis Set: AUG-CC-PV(T+D)Z
    Blend: AUG-CC-PV(T+D)Z
  Basis Set: (AUG-CC-PV(T+D)Z AUX)
    Blend: AUG-CC-PVTZ-JKFIT
  @DF-RKS Final Energy:  -920.26863950586551
    Total Energy =                       -920.2686395058655080
    Molecular point group: d2h
  Basis Set: AUG-CC-PV(T+D)Z
    Blend: AUG-CC-PV(T+D)Z
  Basis Set: (AUG-CC-PV(T+D)Z AUX)
    Blend: AUG-CC-PVTZ-JKFIT
  @DF-RKS Final Energy:  -920.26863074608752
    Total Energy =                       -920.2686307460876378
  Basis Set: AUG-CC-PV(T+D)Z
    Blend: AUG-CC-PV(T+D)Z
  Basis Set: (AUG-CC-PV(T+D)Z AUX)
    Blend: AUG-CC-PVTZ-JKFIT
  @DF-RKS Final Energy:  -920.26864795775214
    Total Energy =                       -920.2686479577521368
  Basis Set: AUG-CC-PV(T+D)Z
    Blend: AUG-CC-PV(T+D)Z
  Basis Set: (AUG-CC-PV(T+D)Z AUX)
    Blend: AUG-CC-PVTZ-JKFIT
  @DF-RKS Final Energy:  -920.26874115177998
    Total Energy =                       -920.2687411517799774
  @DF-RKS Final Energy:  -920.26873781935558
    Total Energy =                       -920.2687378193555787
  @DF-RKS Final Energy:  -920.26874416066892
    Total Energy =                       -920.2687441606689163
  @DF-RKS Final Energy:  -920.26875648878706
    Total Energy =                       -920.2687564887870622
  @DF-RKS Final Energy:  -920.26875645058328
    Total Energy =                       -920.2687564505833961
  @DF-RKS Final Energy:  -920.26875619376278
    Total Energy =                       -920.2687561937628971
  **** Optimization is complete! (in 3 steps) ****
    Final optimized geometry and variables:
  @DF-RKS Final Energy:  -920.26875648878740
    Total Energy =                       -920.2687564887875169
  @DF-RKS Final Energy:  -920.26875645058306
    Total Energy =                       -920.2687564505830551
  Basis Set: AUG-CC-PV(T+D)Z
    Blend: AUG-CC-PV(T+D)Z
  Basis Set: (AUG-CC-PV(T+D)Z AUX)
    Blend: AUG-CC-PVTZ-JKFIT
  @DF-RKS Final Energy:  -920.26875619376199
    Total Energy =                       -920.2687561937619876
  Basis Set: AUG-CC-PV(T+D)Z
    Blend: AUG-CC-PV(T+D)Z
  Basis Set: (AUG-CC-PV(T+D)Z AUX)
    Blend: AUG-CC-PVTZ-JKFIT
  @DF-RKS Final Energy:  -920.26875648878627
    Total Energy =                       -920.2687564887862663
  Multiplicity = 1
  Basis Set: AUG-CC-PV(T+D)Z
    Blend: AUG-CC-PV(T+D)Z
  Basis Set: (AUG-CC-PV(T+D)Z AUX)
    Blend: AUG-CC-PVTZ-JKFIT
  @DF-RKS Final Energy:  -920.26875645058260
    Total Energy =                       -920.2687564505827140
    Molecular point group: d2h

    Geometry (in Angstrom), charge = 0, multiplicity = 1:

       Center              X                  Y                   Z               Mass
    ------------   -----------------  -----------------  -----------------  -----------------
         CL           0.000000000000     0.000000000000    -0.989357719016    34.968852682000
         CL           0.000000000000     0.000000000000     0.989357719016    34.968852682000

  Charge       = 0
  Multiplicity = 1
  Basis Set: AUG-CC-PV(T+D)Z
    Blend: AUG-CC-PV(T+D)Z
  Basis Set: (AUG-CC-PV(T+D)Z AUX)
    Blend: AUG-CC-PVTZ-JKFIT

    Orbital Energies [Eh]
    ---------------------

    Doubly Occupied:

       1B1u -101.607490     1Ag  -101.607480     2Ag    -9.619700
       2B1u   -9.619656     3Ag    -7.379487     3B1u   -7.379330
       1B3g   -7.364936     1B2g   -7.364936     1B2u   -7.364936
       1B3u   -7.364936     4Ag    -1.072658     4B1u   -0.892954
       5Ag    -0.574734     2B2u   -0.525808     2B3u   -0.525808
       2B3g   -0.409840     2B2g   -0.409840

  @DF-RKS Final Energy:  -920.26875619376244

   => Energetics <=

    Nuclear Repulsion Energy =             77.2886343049677436
    One-Electron Energy =               -1423.8307219880018692
    Two-Electron Energy =                 468.8300202945504793
    DFT Exchange-Correlation Energy =     -42.6990066768088425
    Empirical Dispersion Energy =           0.0000000000000000
    VV10 Nonlocal Energy =                  0.1423178715300818
    Total Energy =                       -920.2687561937625560

  Dipole Moment: [D]
     X:     0.0000      Y:     0.0000      Z:     0.0000     Total:     0.0000

  Vibration                       6
  Freq [cm^-1]                 593.4781
  Irrep                           Ag
  Reduced mass [u]             34.9689
  Force const [mDyne/A]         7.2567

  ==> Thermochemistry Components <==

  Entropy, S
    Electronic S            0.000 [cal/(mol K)]        0.000 [J/(mol K)]       0.00000000 [mEh/K] (multiplicity = 1)
    Translational S        38.652 [cal/(mol K)]      161.721 [J/(mol K)]       0.06159614 [mEh/K] (mol. weight = 69.9377 [u], P = 101325.00 [Pa])
    Rotational S           13.995 [cal/(mol K)]       58.556 [J/(mol K)]       0.02230289 [mEh/K] (symmetry no. = 2)
    Vibrational S           0.461 [cal/(mol K)]        1.929 [J/(mol K)]       0.00073466 [mEh/K]
  Total S                  53.108 [cal/(mol K)]      222.206 [J/(mol K)]       0.08463369 [mEh/K]
  Correction S              0.000 [cal/(mol K)]        0.000 [J/(mol K)]       0.00000000 [mEh/K]

  Constant volume heat capacity, Cv
    Electronic Cv           0.000 [cal/(mol K)]        0.000 [J/(mol K)]       0.00000000 [mEh/K]
    Translational Cv        2.981 [cal/(mol K)]       12.472 [J/(mol K)]       0.00475022 [mEh/K]
    Rotational Cv           1.987 [cal/(mol K)]        8.314 [J/(mol K)]       0.00316681 [mEh/K]
    Vibrational Cv          1.046 [cal/(mol K)]        4.375 [J/(mol K)]       0.00166638 [mEh/K]
  Total Cv                  6.014 [cal/(mol K)]       25.161 [J/(mol K)]       0.00958341 [mEh/K]
  Correction Cv             0.000 [cal/(mol K)]        0.000 [J/(mol K)]       0.00000000 [mEh/K]

  Constant pressure heat capacity, Cp
    Electronic Cp           0.000 [cal/(mol K)]        0.000 [J/(mol K)]       0.00000000 [mEh/K]
    Translational Cp        4.968 [cal/(mol K)]       20.786 [J/(mol K)]       0.00791703 [mEh/K]
    Rotational Cp           1.987 [cal/(mol K)]        8.314 [J/(mol K)]       0.00316681 [mEh/K]
    Vibrational Cp          1.046 [cal/(mol K)]        4.375 [J/(mol K)]       0.00166638 [mEh/K]
  Total Cp                  8.001 [cal/(mol K)]       33.476 [J/(mol K)]       0.01275022 [mEh/K]
  Correction Cp             0.000 [cal/(mol K)]        0.000 [J/(mol K)]       0.00000000 [mEh/K]

  ==> Thermochemistry Energy Analysis <==

  Raw electronic energy, E0
  Total E0, Electronic energy at well bottom at 0 [K]                 -920.26875649 [Eh]

  Zero-point energy, ZPE_vib = Sum_i nu_i / 2
    Electronic ZPE          0.000 [kcal/mol]        0.000 [kJ/mol]       0.00000000 [Eh]
    Translational ZPE       0.000 [kcal/mol]        0.000 [kJ/mol]       0.00000000 [Eh]
    Rotational ZPE          0.000 [kcal/mol]        0.000 [kJ/mol]       0.00000000 [Eh]
    Vibrational ZPE         0.848 [kcal/mol]        3.550 [kJ/mol]       0.00135204 [Eh]         296.739 [cm^-1]
  Correction ZPE            0.848 [kcal/mol]        3.550 [kJ/mol]       0.00135204 [Eh]         296.739 [cm^-1]
  Total ZPE, Electronic energy at 0 [K]                               -920.26740445 [Eh]

  Thermal Energy, E (includes ZPE)
    Electronic E            0.000 [kcal/mol]        0.000 [kJ/mol]       0.00000000 [Eh]
    Translational E         0.889 [kcal/mol]        3.718 [kJ/mol]       0.00141628 [Eh]
    Rotational E            0.592 [kcal/mol]        2.479 [kJ/mol]       0.00094418 [Eh]
    Vibrational E           0.951 [kcal/mol]        3.979 [kJ/mol]       0.00151563 [Eh]
  Correction E              2.432 [kcal/mol]       10.177 [kJ/mol]       0.00387609 [Eh]
  Total E, Electronic energy at  298.15 [K]                           -920.26488040 [Eh]

  Enthalpy, H_trans = E_trans + k_B * T
    Electronic H            0.000 [kcal/mol]        0.000 [kJ/mol]       0.00000000 [Eh]
    Translational H         1.481 [kcal/mol]        6.197 [kJ/mol]       0.00236046 [Eh]
    Rotational H            0.592 [kcal/mol]        2.479 [kJ/mol]       0.00094418 [Eh]
    Vibrational H           0.951 [kcal/mol]        3.979 [kJ/mol]       0.00151563 [Eh]
  Correction H              3.025 [kcal/mol]       12.656 [kJ/mol]       0.00482027 [Eh]
  Total H, Enthalpy at  298.15 [K]                                    -920.26393622 [Eh]

  Gibbs free energy, G = H - T * S
    Electronic G            0.000 [kcal/mol]        0.000 [kJ/mol]       0.00000000 [Eh]
    Translational G       -10.043 [kcal/mol]      -42.020 [kJ/mol]      -0.01600443 [Eh]
    Rotational G           -3.580 [kcal/mol]      -14.980 [kJ/mol]      -0.00570542 [Eh]
    Vibrational G           0.814 [kcal/mol]        3.404 [kJ/mol]       0.00129659 [Eh]
  Correction G            -12.810 [kcal/mol]      -53.595 [kJ/mol]      -0.02041326 [Eh]
  Total G, Free enthalpy at  298.15 [K]                               -920.28916975 [Eh]

*** Psi4 exiting successfully. Buy a developer a beer!
