                               Psi4 1.3.2 release

  ==> Input File <==

--------------------------------------------------------------------------
memory 144 GB

molecule {
0 1
Cl 0.0000000000 0.0000000000 0.0000000000
C 0.0000000000 0.0000000000 1.6357056100
N 0.0000000000 0.0000000000 2.7976884200
}

set dynamic_level 1
set basis aug-cc-pV(T+d)Z

optimize("wB97X-V")
frequencies("wB97X-V")
--------------------------------------------------------------------------

    Molecular point group: c2v
  Charge       = 0
  Multiplicity = 1
  Basis Set: AUG-CC-PV(T+D)Z
    Blend: AUG-CC-PV(T+D)Z
  Basis Set: (AUG-CC-PV(T+D)Z AUX)
    Blend: AUG-CC-PVTZ-JKFIT
  @DF-RKS Final Energy:  -552.97104072745321
    Total Energy =                       -552.9710407274532145
    Molecular point group: c2v
  Basis Set: AUG-CC-PV(T+D)Z
    Blend: AUG-CC-PV(T+D)Z
  Basis Set: (AUG-CC-PV(T+D)Z AUX)
    Blend: AUG-CC-PVTZ-JKFIT
  @DF-RKS Final Energy:  -552.97103607340409
    Total Energy =                       -552.9710360734040933
  Basis Set: AUG-CC-PV(T+D)Z
    Blend: AUG-CC-PV(T+D)Z
  Basis Set: (AUG-CC-PV(T+D)Z AUX)
    Blend: AUG-CC-PVTZ-JKFIT
  @DF-RKS Final Energy:  -552.97104479838345
    Total Energy =                       -552.9710447983835593
  Basis Set: AUG-CC-PV(T+D)Z
    Blend: AUG-CC-PV(T+D)Z
  Basis Set: (AUG-CC-PV(T+D)Z AUX)
    Blend: AUG-CC-PVTZ-JKFIT
  @DF-RKS Final Energy:  -552.97098936953421
    Total Energy =                       -552.9709893695343226
  @DF-RKS Final Energy:  -552.97108718540039
    Total Energy =                       -552.9710871854003926
  @DF-RKS Final Energy:  -552.97134589931431
    Total Energy =                       -552.9713458993142012
  @DF-RKS Final Energy:  -552.97134514508957
    Total Energy =                       -552.9713451450894581
  @DF-RKS Final Energy:  -552.97134605119129
    Total Energy =                       -552.9713460511911762
  @DF-RKS Final Energy:  -552.97134239357365
    Total Energy =                       -552.9713423935736500
  @DF-RKS Final Energy:  -552.97134414609775
    Total Energy =                       -552.9713441460977492
  @DF-RKS Final Energy:  -552.97134621505063
    Total Energy =                       -552.9713462150506302
  @DF-RKS Final Energy:  -552.97134584472747
    Total Energy =                       -552.9713458447274661
  @DF-RKS Final Energy:  -552.97134597716990
    Total Energy =                       -552.9713459771699036
  @DF-RKS Final Energy:  -552.97134372690789
    Total Energy =                       -552.9713437269078895
  @DF-RKS Final Energy:  -552.97134343502682
    Total Energy =                       -552.9713434350269381
  **** Optimization is complete! (in 3 steps) ****
    Final optimized geometry and variables:
  @DF-RKS Final Energy:  -552.97134621302746
    Total Energy =                       -552.9713462130273456
  @DF-RKS Final Energy:  -552.97134584562616
    Total Energy =                       -552.9713458456261606
  @DF-RKS Final Energy:  -552.97134597680724
    Total Energy =                       -552.9713459768072426
  @DF-RKS Final Energy:  -552.97134372682092
    Total Energy =                       -552.9713437268208054
  @DF-RKS Final Energy:  -552.97134343354810
    Total Energy =                       -552.9713434335480997
  @DF-RKS Final Energy:  -552.97134621302769
    Total Energy =                       -552.9713462130276866
  @DF-RKS Final Energy:  -552.97134584562718
    Total Energy =                       -552.9713458456272974
  @DF-RKS Final Energy:  -552.97134597680758
    Total Energy =                       -552.9713459768075836
  @DF-RKS Final Energy:  -552.97134372682103
    Total Energy =                       -552.9713437268210328
  @DF-RKS Final Energy:  -552.97134343354946
    Total Energy =                       -552.9713434335494640
  Basis Set: AUG-CC-PV(T+D)Z
    Blend: AUG-CC-PV(T+D)Z
  Basis Set: (AUG-CC-PV(T+D)Z AUX)
    Blend: AUG-CC-PVTZ-JKFIT
  @DF-RKS Final Energy:  -552.97134364730721
    Total Energy =                       -552.9713436473073216
  Basis Set: AUG-CC-PV(T+D)Z
    Blend: AUG-CC-PV(T+D)Z
  Basis Set: (AUG-CC-PV(T+D)Z AUX)
    Blend: AUG-CC-PVTZ-JKFIT
  @DF-RKS Final Energy:  -552.97134380421039
    Total Energy =                       -552.9713438042103917
  Multiplicity = 1
  Basis Set: AUG-CC-PV(T+D)Z
    Blend: AUG-CC-PV(T+D)Z
  Basis Set: (AUG-CC-PV(T+D)Z AUX)
    Blend: AUG-CC-PVTZ-JKFIT
  @DF-RKS Final Energy:  -552.97134613304991
    Total Energy =                       -552.9713461330499058
    Molecular point group: cs

    Geometry (in Angstrom), charge = 0, multiplicity = 1:

       Center              X                  Y                   Z               Mass
    ------------   -----------------  -----------------  -----------------  -----------------
         CL           0.000000000000    -0.000093183592    -0.959957210900    34.968852682000
         C            0.000000000000     0.000656552591     0.671356672936    12.000000000000
         N            0.000000000000    -0.000329935254     1.821908689882    14.003074004430

  Charge       = 0
  Multiplicity = 1
  Basis Set: AUG-CC-PV(T+D)Z
    Blend: AUG-CC-PV(T+D)Z
  Basis Set: (AUG-CC-PV(T+D)Z AUX)
    Blend: AUG-CC-PVTZ-JKFIT

    Orbital Energies [Eh]
    ---------------------

    Doubly Occupied:

       1Ap  -101.639529     2Ap   -14.441199     3Ap   -10.376343
       4Ap    -9.653939     5Ap    -7.411238     1App   -7.400226
       6Ap    -7.400226     7Ap    -1.101822     8Ap    -1.038833
       9Ap    -0.693679     2App   -0.559665    10Ap    -0.559665
      11Ap    -0.506413     3App   -0.442112    12Ap    -0.442112

  @DF-RKS Final Energy:  -552.97134613343803

   => Energetics <=

    Nuclear Repulsion Energy =             75.0413117613858276
    One-Electron Energy =                -908.3443441334223962
    Two-Electron Energy =                 310.1856616424659023
    DFT Exchange-Correlation Energy =     -29.9783942473771177
    Empirical Dispersion Energy =           0.0000000000000000
    VV10 Nonlocal Energy =                  0.1244188435096943
    Total Energy =                       -552.9713461334380327

  Dipole Moment: [D]
     X:     0.0000      Y:     0.0008      Z:    -2.9571     Total:     2.9571

  Vibration                       6                   7                   8
  Freq [cm^-1]                 410.1829            411.1819            770.0969
  Irrep                           B2                  B1                  A1
  Reduced mass [u]             12.7610             12.7610             17.9686
  Force const [mDyne/A]         1.2650              1.2712              6.2785

  Vibration                       9
  Freq [cm^-1]                2368.6947
  Irrep                           A1
  Reduced mass [u]             12.7409
  Force const [mDyne/A]        42.1180

  ==> Thermochemistry Components <==

  Entropy, S
    Electronic S            0.000 [cal/(mol K)]        0.000 [J/(mol K)]       0.00000000 [mEh/K] (multiplicity = 1)
    Translational S        38.243 [cal/(mol K)]      160.010 [J/(mol K)]       0.06094445 [mEh/K] (mol. weight = 60.9719 [u], P = 101325.00 [Pa])
    Rotational S           15.781 [cal/(mol K)]       66.027 [J/(mol K)]       0.02514820 [mEh/K] (symmetry no. = 1)
    Vibrational S           2.082 [cal/(mol K)]        8.710 [J/(mol K)]       0.00331746 [mEh/K]
  Total S                  56.106 [cal/(mol K)]      234.746 [J/(mol K)]       0.08941010 [mEh/K]
  Correction S              0.000 [cal/(mol K)]        0.000 [J/(mol K)]       0.00000000 [mEh/K]

  Constant volume heat capacity, Cv
    Electronic Cv           0.000 [cal/(mol K)]        0.000 [J/(mol K)]       0.00000000 [mEh/K]
    Translational Cv        2.981 [cal/(mol K)]       12.472 [J/(mol K)]       0.00475022 [mEh/K]
    Rotational Cv           1.987 [cal/(mol K)]        8.314 [J/(mol K)]       0.00316681 [mEh/K]
    Vibrational Cv          3.598 [cal/(mol K)]       15.055 [J/(mol K)]       0.00573406 [mEh/K]
  Total Cv                  8.566 [cal/(mol K)]       35.841 [J/(mol K)]       0.01365109 [mEh/K]
  Correction Cv             0.000 [cal/(mol K)]        0.000 [J/(mol K)]       0.00000000 [mEh/K]

  Constant pressure heat capacity, Cp
    Electronic Cp           0.000 [cal/(mol K)]        0.000 [J/(mol K)]       0.00000000 [mEh/K]
    Translational Cp        4.968 [cal/(mol K)]       20.786 [J/(mol K)]       0.00791703 [mEh/K]
    Rotational Cp           1.987 [cal/(mol K)]        8.314 [J/(mol K)]       0.00316681 [mEh/K]
    Vibrational Cp          3.598 [cal/(mol K)]       15.055 [J/(mol K)]       0.00573406 [mEh/K]
  Total Cp                 10.553 [cal/(mol K)]       44.155 [J/(mol K)]       0.01681790 [mEh/K]
  Correction Cp             0.000 [cal/(mol K)]        0.000 [J/(mol K)]       0.00000000 [mEh/K]

  ==> Thermochemistry Energy Analysis <==

  Raw electronic energy, E0
  Total E0, Electronic energy at well bottom at 0 [K]                 -552.97134621 [Eh]

  Zero-point energy, ZPE_vib = Sum_i nu_i / 2
    Electronic ZPE          0.000 [kcal/mol]        0.000 [kJ/mol]       0.00000000 [Eh]
    Translational ZPE       0.000 [kcal/mol]        0.000 [kJ/mol]       0.00000000 [Eh]
    Rotational ZPE          0.000 [kcal/mol]        0.000 [kJ/mol]       0.00000000 [Eh]
    Vibrational ZPE         5.661 [kcal/mol]       23.687 [kJ/mol]       0.00902190 [Eh]        1980.078 [cm^-1]
  Correction ZPE            5.661 [kcal/mol]       23.687 [kJ/mol]       0.00902190 [Eh]        1980.078 [cm^-1]
  Total ZPE, Electronic energy at 0 [K]                               -552.96232431 [Eh]

  Thermal Energy, E (includes ZPE)
    Electronic E            0.000 [kcal/mol]        0.000 [kJ/mol]       0.00000000 [Eh]
    Translational E         0.889 [kcal/mol]        3.718 [kJ/mol]       0.00141628 [Eh]
    Rotational E            0.592 [kcal/mol]        2.479 [kJ/mol]       0.00094418 [Eh]
    Vibrational E           6.092 [kcal/mol]       25.488 [kJ/mol]       0.00970771 [Eh]
  Correction E              7.573 [kcal/mol]       31.685 [kJ/mol]       0.01206818 [Eh]
  Total E, Electronic energy at  298.15 [K]                           -552.95927804 [Eh]

  Enthalpy, H_trans = E_trans + k_B * T
    Electronic H            0.000 [kcal/mol]        0.000 [kJ/mol]       0.00000000 [Eh]
    Translational H         1.481 [kcal/mol]        6.197 [kJ/mol]       0.00236046 [Eh]
    Rotational H            0.592 [kcal/mol]        2.479 [kJ/mol]       0.00094418 [Eh]
    Vibrational H           6.092 [kcal/mol]       25.488 [kJ/mol]       0.00970771 [Eh]
  Correction H              8.165 [kcal/mol]       34.164 [kJ/mol]       0.01301236 [Eh]
  Total H, Enthalpy at  298.15 [K]                                    -552.95833385 [Eh]

  Gibbs free energy, G = H - T * S
    Electronic G            0.000 [kcal/mol]        0.000 [kJ/mol]       0.00000000 [Eh]
    Translational G        -9.921 [kcal/mol]      -41.509 [kJ/mol]      -0.01581013 [Eh]
    Rotational G           -4.113 [kcal/mol]      -17.207 [kJ/mol]      -0.00655375 [Eh]
    Vibrational G           5.471 [kcal/mol]       22.891 [kJ/mol]       0.00871861 [Eh]
  Correction G             -8.563 [kcal/mol]      -35.826 [kJ/mol]      -0.01364526 [Eh]
  Total G, Free enthalpy at  298.15 [K]                               -552.98499147 [Eh]

*** Psi4 exiting successfully. Buy a developer a beer!
