                               Psi4 1.3.2 release

  ==> Input File <==

--------------------------------------------------------------------------
memory 144 GB

molecule {
0 1
Cl 0.0000000000 0.0000000000 0.0000000000
F 0.0000000000 0.0000000000 1.6318233300
}

set dynamic_level 1
set basis aug-cc-pV(T+d)Z

optimize("wB97X-V")
frequencies("wB97X-V")
--------------------------------------------------------------------------

    Molecular point group: c2v
  Charge       = 0
  Multiplicity = 1
  Basis Set: AUG-CC-PV(T+D)Z
    Blend: AUG-CC-PV(T+D)Z
  Basis Set: (AUG-CC-PV(T+D)Z AUX)
    Blend: AUG-CC-PVTZ-JKFIT
  @DF-RKS Final Energy:  -559.91702298671578
    Total Energy =                       -559.9170229867157786
    Molecular point group: c2v
  Basis Set: AUG-CC-PV(T+D)Z
    Blend: AUG-CC-PV(T+D)Z
  Basis Set: (AUG-CC-PV(T+D)Z AUX)
    Blend: AUG-CC-PVTZ-JKFIT
  @DF-RKS Final Energy:  -559.91701358610976
    Total Energy =                       -559.9170135861097606
  Basis Set: AUG-CC-PV(T+D)Z
    Blend: AUG-CC-PV(T+D)Z
  Basis Set: (AUG-CC-PV(T+D)Z AUX)
    Blend: AUG-CC-PVTZ-JKFIT
  @DF-RKS Final Energy:  -559.91703175672751
    Total Energy =                       -559.9170317567273969
  Basis Set: AUG-CC-PV(T+D)Z
    Blend: AUG-CC-PV(T+D)Z
  Basis Set: (AUG-CC-PV(T+D)Z AUX)
    Blend: AUG-CC-PVTZ-JKFIT
  @DF-RKS Final Energy:  -559.91708140947958
    Total Energy =                       -559.9170814094795787
  @DF-RKS Final Energy:  -559.91707831565031
    Total Energy =                       -559.9170783156503148
  @DF-RKS Final Energy:  -559.91708384747494
    Total Energy =                       -559.9170838474749416
  @DF-RKS Final Energy:  -559.91708720801614
    Total Energy =                       -559.9170872080161416
  @DF-RKS Final Energy:  -559.91708695240300
    Total Energy =                       -559.9170869524031104
  @DF-RKS Final Energy:  -559.91708679699423
    Total Energy =                       -559.9170867969942265
  **** Optimization is complete! (in 3 steps) ****
    Final optimized geometry and variables:
  @DF-RKS Final Energy:  -559.91708720801569
    Total Energy =                       -559.9170872080156869
  @DF-RKS Final Energy:  -559.91708695240322
    Total Energy =                       -559.9170869524031104
  Basis Set: AUG-CC-PV(T+D)Z
    Blend: AUG-CC-PV(T+D)Z
  Basis Set: (AUG-CC-PV(T+D)Z AUX)
    Blend: AUG-CC-PVTZ-JKFIT
  @DF-RKS Final Energy:  -559.91708679699377
    Total Energy =                       -559.9170867969938854
  Basis Set: AUG-CC-PV(T+D)Z
    Blend: AUG-CC-PV(T+D)Z
  Basis Set: (AUG-CC-PV(T+D)Z AUX)
    Blend: AUG-CC-PVTZ-JKFIT
  @DF-RKS Final Energy:  -559.91708720801580
    Total Energy =                       -559.9170872080158006
  Multiplicity = 1
  Basis Set: AUG-CC-PV(T+D)Z
    Blend: AUG-CC-PV(T+D)Z
  Basis Set: (AUG-CC-PV(T+D)Z AUX)
    Blend: AUG-CC-PVTZ-JKFIT
  @DF-RKS Final Energy:  -559.91708695240334
    Total Energy =                       -559.9170869524034515
    Molecular point group: c2v

    Geometry (in Angstrom), charge = 0, multiplicity = 1:

       Center              X                  Y                   Z               Mass
    ------------   -----------------  -----------------  -----------------  -----------------
         CL           0.000000000000     0.000000000000    -0.570444862854    34.968852682000
         F            0.000000000000     0.000000000000     1.049972579353    18.998403162730

  Charge       = 0
  Multiplicity = 1
  Basis Set: AUG-CC-PV(T+D)Z
    Blend: AUG-CC-PV(T+D)Z
  Basis Set: (AUG-CC-PV(T+D)Z AUX)
    Blend: AUG-CC-PVTZ-JKFIT

    Orbital Energies [Eh]
    ---------------------

    Doubly Occupied:

       1A1  -101.638232     2A1   -24.824240     3A1    -9.647643
       4A1    -7.410527     1B1    -7.391535     1B2    -7.391535
       5A1    -1.381614     6A1    -0.965289     7A1    -0.649658
       2B2    -0.611948     2B1    -0.611948     3B2    -0.440837
       3B1    -0.440837

  @DF-RKS Final Energy:  -559.91708679699445

   => Energetics <=

    Nuclear Repulsion Energy =             49.9649726815047757
    One-Electron Energy =                -873.3136245717852262
    Two-Electron Energy =                 292.2017254917886362
    DFT Exchange-Correlation Energy =     -28.8800019757069357
    Empirical Dispersion Energy =           0.0000000000000000
    VV10 Nonlocal Energy =                  0.1098415772043718
    Total Energy =                       -559.9170867969943401

  Dipole Moment: [D]
     X:     0.0000      Y:     0.0000      Z:    -0.8453     Total:     0.8453

  Vibration                       6
  Freq [cm^-1]                 839.4173
  Irrep                           A1
  Reduced mass [u]             22.6381
  Force const [mDyne/A]         9.3982

  ==> Thermochemistry Components <==

  Entropy, S
    Electronic S            0.000 [cal/(mol K)]        0.000 [J/(mol K)]       0.00000000 [mEh/K] (multiplicity = 1)
    Translational S        37.879 [cal/(mol K)]      158.488 [J/(mol K)]       0.06036475 [mEh/K] (mol. weight = 53.9673 [u], P = 101325.00 [Pa])
    Rotational S           13.882 [cal/(mol K)]       58.083 [J/(mol K)]       0.02212249 [mEh/K] (symmetry no. = 1)
    Vibrational S           0.178 [cal/(mol K)]        0.743 [J/(mol K)]       0.00028290 [mEh/K]
  Total S                  51.939 [cal/(mol K)]      217.313 [J/(mol K)]       0.08277014 [mEh/K]
  Correction S              0.000 [cal/(mol K)]        0.000 [J/(mol K)]       0.00000000 [mEh/K]

  Constant volume heat capacity, Cv
    Electronic Cv           0.000 [cal/(mol K)]        0.000 [J/(mol K)]       0.00000000 [mEh/K]
    Translational Cv        2.981 [cal/(mol K)]       12.472 [J/(mol K)]       0.00475022 [mEh/K]
    Rotational Cv           1.987 [cal/(mol K)]        8.314 [J/(mol K)]       0.00316681 [mEh/K]
    Vibrational Cv          0.588 [cal/(mol K)]        2.460 [J/(mol K)]       0.00093697 [mEh/K]
  Total Cv                  5.556 [cal/(mol K)]       23.246 [J/(mol K)]       0.00885400 [mEh/K]
  Correction Cv             0.000 [cal/(mol K)]        0.000 [J/(mol K)]       0.00000000 [mEh/K]

  Constant pressure heat capacity, Cp
    Electronic Cp           0.000 [cal/(mol K)]        0.000 [J/(mol K)]       0.00000000 [mEh/K]
    Translational Cp        4.968 [cal/(mol K)]       20.786 [J/(mol K)]       0.00791703 [mEh/K]
    Rotational Cp           1.987 [cal/(mol K)]        8.314 [J/(mol K)]       0.00316681 [mEh/K]
    Vibrational Cp          0.588 [cal/(mol K)]        2.460 [J/(mol K)]       0.00093697 [mEh/K]
  Total Cp                  7.543 [cal/(mol K)]       31.561 [J/(mol K)]       0.01202081 [mEh/K]
  Correction Cp             0.000 [cal/(mol K)]        0.000 [J/(mol K)]       0.00000000 [mEh/K]

  ==> Thermochemistry Energy Analysis <==

  Raw electronic energy, E0
  Total E0, Electronic energy at well bottom at 0 [K]                 -559.91708721 [Eh]

  Zero-point energy, ZPE_vib = Sum_i nu_i / 2
    Electronic ZPE          0.000 [kcal/mol]        0.000 [kJ/mol]       0.00000000 [Eh]
    Translational ZPE       0.000 [kcal/mol]        0.000 [kJ/mol]       0.00000000 [Eh]
    Rotational ZPE          0.000 [kcal/mol]        0.000 [kJ/mol]       0.00000000 [Eh]
    Vibrational ZPE         1.200 [kcal/mol]        5.021 [kJ/mol]       0.00191233 [Eh]         419.709 [cm^-1]
  Correction ZPE            1.200 [kcal/mol]        5.021 [kJ/mol]       0.00191233 [Eh]         419.709 [cm^-1]
  Total ZPE, Electronic energy at 0 [K]                               -559.91517487 [Eh]

  Thermal Energy, E (includes ZPE)
    Electronic E            0.000 [kcal/mol]        0.000 [kJ/mol]       0.00000000 [Eh]
    Translational E         0.889 [kcal/mol]        3.718 [kJ/mol]       0.00141628 [Eh]
    Rotational E            0.592 [kcal/mol]        2.479 [kJ/mol]       0.00094418 [Eh]
    Vibrational E           1.243 [kcal/mol]        5.199 [kJ/mol]       0.00198010 [Eh]
  Correction E              2.724 [kcal/mol]       11.396 [kJ/mol]       0.00434056 [Eh]
  Total E, Electronic energy at  298.15 [K]                           -559.91274665 [Eh]

  Enthalpy, H_trans = E_trans + k_B * T
    Electronic H            0.000 [kcal/mol]        0.000 [kJ/mol]       0.00000000 [Eh]
    Translational H         1.481 [kcal/mol]        6.197 [kJ/mol]       0.00236046 [Eh]
    Rotational H            0.592 [kcal/mol]        2.479 [kJ/mol]       0.00094418 [Eh]
    Vibrational H           1.243 [kcal/mol]        5.199 [kJ/mol]       0.00198010 [Eh]
  Correction H              3.316 [kcal/mol]       13.875 [kJ/mol]       0.00528474 [Eh]
  Total H, Enthalpy at  298.15 [K]                                    -559.91180247 [Eh]

  Gibbs free energy, G = H - T * S
    Electronic G            0.000 [kcal/mol]        0.000 [kJ/mol]       0.00000000 [Eh]
    Translational G        -9.813 [kcal/mol]      -41.056 [kJ/mol]      -0.01563729 [Eh]
    Rotational G           -3.546 [kcal/mol]      -14.838 [kJ/mol]      -0.00565164 [Eh]
    Vibrational G           1.190 [kcal/mol]        4.977 [kJ/mol]       0.00189575 [Eh]
  Correction G            -12.169 [kcal/mol]      -50.917 [kJ/mol]      -0.01939317 [Eh]
  Total G, Free enthalpy at  298.15 [K]                               -559.93648038 [Eh]

*** Psi4 exiting successfully. Buy a developer a beer!
