                               Psi4 1.3.2 release

  ==> Input File <==

--------------------------------------------------------------------------
memory 144 GB

molecule {
0 1
C 0.0000000000 0.0000000000 0.0000000000
O 0.0000000000 0.0000000000 1.1626000000
O 0.0000000000 0.0000000000 -1.1626000000
}

set dynamic_level 1
set basis aug-cc-pV(T+d)Z

optimize("wB97X-V")
frequencies("wB97X-V")
--------------------------------------------------------------------------

    Molecular point group: d2h
  Charge       = 0
  Multiplicity = 1
  Basis Set: AUG-CC-PV(T+D)Z
    Blend: AUG-CC-PV(T+D)Z
  Basis Set: (AUG-CC-PV(T+D)Z AUX)
    Blend: AUG-CC-PVTZ-JKFIT
  @DF-RKS Final Energy:  -188.59732584570369
    Total Energy =                       -188.5973258457036934
    Molecular point group: d2h
  Basis Set: AUG-CC-PV(T+D)Z
    Blend: AUG-CC-PV(T+D)Z
  Basis Set: (AUG-CC-PV(T+D)Z AUX)
    Blend: AUG-CC-PVTZ-JKFIT
  @DF-RKS Final Energy:  -188.59733483518659
    Total Energy =                       -188.5973348351865582
  Basis Set: AUG-CC-PV(T+D)Z
    Blend: AUG-CC-PV(T+D)Z
  Basis Set: (AUG-CC-PV(T+D)Z AUX)
    Blend: AUG-CC-PVTZ-JKFIT
  @DF-RKS Final Energy:  -188.59731505573930
    Total Energy =                       -188.5973150557392728
  Basis Set: AUG-CC-PV(T+D)Z
    Blend: AUG-CC-PV(T+D)Z
  Basis Set: (AUG-CC-PV(T+D)Z AUX)
    Blend: AUG-CC-PVTZ-JKFIT
  @DF-RKS Final Energy:  -188.59735272125295
    Total Energy =                       -188.5973527212529461
  @DF-RKS Final Energy:  -188.59735260387396
    Total Energy =                       -188.5973526038739578
  @DF-RKS Final Energy:  -188.59735100814294
    Total Energy =                       -188.5973510081429367
  @DF-RKS Final Energy:  -188.59735289642970
    Total Energy =                       -188.5973528964296975
  @DF-RKS Final Energy:  -188.59735197187683
    Total Energy =                       -188.5973519718768330
  @DF-RKS Final Energy:  -188.59735198584312
    Total Energy =                       -188.5973519858431189
  **** Optimization is complete! (in 3 steps) ****
    Final optimized geometry and variables:
  @DF-RKS Final Energy:  -188.59735289642953
    Total Energy =                       -188.5973528964295269
  @DF-RKS Final Energy:  -188.59735197187692
    Total Energy =                       -188.5973519718768898
  @DF-RKS Final Energy:  -188.59735198584303
    Total Energy =                       -188.5973519858430052
  @DF-RKS Final Energy:  -188.59735289642967
    Total Energy =                       -188.5973528964296975
  @DF-RKS Final Energy:  -188.59735197187712
    Total Energy =                       -188.5973519718771172
  Basis Set: AUG-CC-PV(T+D)Z
    Blend: AUG-CC-PV(T+D)Z
  Basis Set: (AUG-CC-PV(T+D)Z AUX)
    Blend: AUG-CC-PVTZ-JKFIT
  @DF-RKS Final Energy:  -188.59735198584315
    Total Energy =                       -188.5973519858431757
  Basis Set: AUG-CC-PV(T+D)Z
    Blend: AUG-CC-PV(T+D)Z
  Basis Set: (AUG-CC-PV(T+D)Z AUX)
    Blend: AUG-CC-PVTZ-JKFIT
  @DF-RKS Final Energy:  -188.59735011823571
    Total Energy =                       -188.5973501182357097
  Multiplicity = 1
  Basis Set: AUG-CC-PV(T+D)Z
    Blend: AUG-CC-PV(T+D)Z
  Basis Set: (AUG-CC-PV(T+D)Z AUX)
    Blend: AUG-CC-PVTZ-JKFIT
  @DF-RKS Final Energy:  -188.59735267241015
    Total Energy =                       -188.5973526724101532
    Molecular point group: c2v

    Geometry (in Angstrom), charge = 0, multiplicity = 1:

       Center              X                  Y                   Z               Mass
    ------------   -----------------  -----------------  -----------------  -----------------
         C           -0.000651343880     0.000000000000     0.000000000000    12.000000000000
         O            0.000244331612     0.000000000000     1.160046912131    15.994914619570
         O            0.000244331612     0.000000000000    -1.160046912131    15.994914619570

  Charge       = 0
  Multiplicity = 1
  Basis Set: AUG-CC-PV(T+D)Z
    Blend: AUG-CC-PV(T+D)Z
  Basis Set: (AUG-CC-PV(T+D)Z AUX)
    Blend: AUG-CC-PVTZ-JKFIT

    Orbital Energies [Eh]
    ---------------------

    Doubly Occupied:

       1B2   -19.301698     1A1   -19.301618     2A1   -10.466034
       3A1    -1.300804     2B2    -1.256336     4A1    -0.687181
       1B1    -0.641778     5A1    -0.641778     3B2    -0.639652
       1A2    -0.483422     4B2    -0.483422

  @DF-RKS Final Energy:  -188.59735267499582

   => Energetics <=

    Nuclear Repulsion Energy =             58.3895936579218997
    One-Electron Energy =                -372.7700076029792626
    Two-Electron Energy =                 141.7491404835723188
    DFT Exchange-Correlation Energy =     -16.0578371249802458
    Empirical Dispersion Energy =           0.0000000000000000
    VV10 Nonlocal Energy =                  0.0917579114694378
    Total Energy =                       -188.5973526749958182

  Dipole Moment: [D]
     X:    -0.0023      Y:     0.0000      Z:     0.0000     Total:     0.0023

  Vibration                       6                   7                   8
  Freq [cm^-1]                 684.1814            688.1644           1392.7359
  Irrep                          B3u                 B2u                  Ag
  Reduced mass [u]             12.8774             12.8774             15.9949
  Force const [mDyne/A]         3.5516              3.5930             18.2797

  Vibration                       9
  Freq [cm^-1]                2423.4304
  Irrep                          B1u
  Reduced mass [u]             12.8774
  Force const [mDyne/A]        44.5593

  ==> Thermochemistry Components <==

  Entropy, S
    Electronic S            0.000 [cal/(mol K)]        0.000 [J/(mol K)]       0.00000000 [mEh/K] (multiplicity = 1)
    Translational S        37.270 [cal/(mol K)]      155.938 [J/(mol K)]       0.05939371 [mEh/K] (mol. weight = 43.9898 [u], P = 101325.00 [Pa])
    Rotational S           13.072 [cal/(mol K)]       54.694 [J/(mol K)]       0.02083189 [mEh/K] (symmetry no. = 2)
    Vibrational S           0.665 [cal/(mol K)]        2.780 [J/(mol K)]       0.00105900 [mEh/K]
  Total S                  51.007 [cal/(mol K)]      213.413 [J/(mol K)]       0.08128460 [mEh/K]
  Correction S              0.000 [cal/(mol K)]        0.000 [J/(mol K)]       0.00000000 [mEh/K]

  Constant volume heat capacity, Cv
    Electronic Cv           0.000 [cal/(mol K)]        0.000 [J/(mol K)]       0.00000000 [mEh/K]
    Translational Cv        2.981 [cal/(mol K)]       12.472 [J/(mol K)]       0.00475022 [mEh/K]
    Rotational Cv           1.987 [cal/(mol K)]        8.314 [J/(mol K)]       0.00316681 [mEh/K]
    Vibrational Cv          1.823 [cal/(mol K)]        7.626 [J/(mol K)]       0.00290450 [mEh/K]
  Total Cv                  6.791 [cal/(mol K)]       28.412 [J/(mol K)]       0.01082153 [mEh/K]
  Correction Cv             0.000 [cal/(mol K)]        0.000 [J/(mol K)]       0.00000000 [mEh/K]

  Constant pressure heat capacity, Cp
    Electronic Cp           0.000 [cal/(mol K)]        0.000 [J/(mol K)]       0.00000000 [mEh/K]
    Translational Cp        4.968 [cal/(mol K)]       20.786 [J/(mol K)]       0.00791703 [mEh/K]
    Rotational Cp           1.987 [cal/(mol K)]        8.314 [J/(mol K)]       0.00316681 [mEh/K]
    Vibrational Cp          1.823 [cal/(mol K)]        7.626 [J/(mol K)]       0.00290450 [mEh/K]
  Total Cp                  8.778 [cal/(mol K)]       36.726 [J/(mol K)]       0.01398834 [mEh/K]
  Correction Cp             0.000 [cal/(mol K)]        0.000 [J/(mol K)]       0.00000000 [mEh/K]

  ==> Thermochemistry Energy Analysis <==

  Raw electronic energy, E0
  Total E0, Electronic energy at well bottom at 0 [K]                 -188.59735290 [Eh]

  Zero-point energy, ZPE_vib = Sum_i nu_i / 2
    Electronic ZPE          0.000 [kcal/mol]        0.000 [kJ/mol]       0.00000000 [Eh]
    Translational ZPE       0.000 [kcal/mol]        0.000 [kJ/mol]       0.00000000 [Eh]
    Rotational ZPE          0.000 [kcal/mol]        0.000 [kJ/mol]       0.00000000 [Eh]
    Vibrational ZPE         7.417 [kcal/mol]       31.034 [kJ/mol]       0.01182030 [Eh]        2594.256 [cm^-1]
  Correction ZPE            7.417 [kcal/mol]       31.034 [kJ/mol]       0.01182030 [Eh]        2594.256 [cm^-1]
  Total ZPE, Electronic energy at 0 [K]                               -188.58553260 [Eh]

  Thermal Energy, E (includes ZPE)
    Electronic E            0.000 [kcal/mol]        0.000 [kJ/mol]       0.00000000 [Eh]
    Translational E         0.889 [kcal/mol]        3.718 [kJ/mol]       0.00141628 [Eh]
    Rotational E            0.592 [kcal/mol]        2.479 [kJ/mol]       0.00094418 [Eh]
    Vibrational E           7.571 [kcal/mol]       31.676 [kJ/mol]       0.01206473 [Eh]
  Correction E              9.052 [kcal/mol]       37.873 [kJ/mol]       0.01442519 [Eh]
  Total E, Electronic energy at  298.15 [K]                           -188.58292770 [Eh]

  Enthalpy, H_trans = E_trans + k_B * T
    Electronic H            0.000 [kcal/mol]        0.000 [kJ/mol]       0.00000000 [Eh]
    Translational H         1.481 [kcal/mol]        6.197 [kJ/mol]       0.00236046 [Eh]
    Rotational H            0.592 [kcal/mol]        2.479 [kJ/mol]       0.00094418 [Eh]
    Vibrational H           7.571 [kcal/mol]       31.676 [kJ/mol]       0.01206473 [Eh]
  Correction H              9.644 [kcal/mol]       40.352 [kJ/mol]       0.01536938 [Eh]
  Total H, Enthalpy at  298.15 [K]                                    -188.58198352 [Eh]

  Gibbs free energy, G = H - T * S
    Electronic G            0.000 [kcal/mol]        0.000 [kJ/mol]       0.00000000 [Eh]
    Translational G        -9.631 [kcal/mol]      -40.296 [kJ/mol]      -0.01534777 [Eh]
    Rotational G           -3.305 [kcal/mol]      -13.828 [kJ/mol]      -0.00526684 [Eh]
    Vibrational G           7.373 [kcal/mol]       30.847 [kJ/mol]       0.01174899 [Eh]
  Correction G             -5.563 [kcal/mol]      -23.277 [kJ/mol]      -0.00886562 [Eh]
  Total G, Free enthalpy at  298.15 [K]                               -188.60621852 [Eh]

*** Psi4 exiting successfully. Buy a developer a beer!
