                               Psi4 1.3.2 release

  ==> Input File <==

--------------------------------------------------------------------------
memory 144 GB

molecule {
0 1
C 0.0000000000 0.0000000000 0.0000000000
O 0.0000000000 0.0000000000 1.1314000000
}

set dynamic_level 1
set basis aug-cc-pV(T+d)Z

optimize("wB97X-V")
frequencies("wB97X-V")
--------------------------------------------------------------------------

    Molecular point group: c2v
  Charge       = 0
  Multiplicity = 1
  Basis Set: AUG-CC-PV(T+D)Z
    Blend: AUG-CC-PV(T+D)Z
  Basis Set: (AUG-CC-PV(T+D)Z AUX)
    Blend: AUG-CC-PVTZ-JKFIT
  @DF-RKS Final Energy:  -113.32146548607268
    Total Energy =                       -113.3214654860726824
    Molecular point group: c2v
  Basis Set: AUG-CC-PV(T+D)Z
    Blend: AUG-CC-PV(T+D)Z
  Basis Set: (AUG-CC-PV(T+D)Z AUX)
    Blend: AUG-CC-PVTZ-JKFIT
  @DF-RKS Final Energy:  -113.32144228735386
    Total Energy =                       -113.3214422873538467
  Basis Set: AUG-CC-PV(T+D)Z
    Blend: AUG-CC-PV(T+D)Z
  Basis Set: (AUG-CC-PV(T+D)Z AUX)
    Blend: AUG-CC-PVTZ-JKFIT
  @DF-RKS Final Energy:  -113.32148410972886
    Total Energy =                       -113.3214841097288570
  Basis Set: AUG-CC-PV(T+D)Z
    Blend: AUG-CC-PV(T+D)Z
  Basis Set: (AUG-CC-PV(T+D)Z AUX)
    Blend: AUG-CC-PVTZ-JKFIT
  @DF-RKS Final Energy:  -113.32151183835902
    Total Energy =                       -113.3215118383590294
  @DF-RKS Final Energy:  -113.32150648440874
    Total Energy =                       -113.3215064844087436
  @DF-RKS Final Energy:  -113.32151249297939
    Total Energy =                       -113.3215124929793944
  @DF-RKS Final Energy:  -113.32151280134103
    Total Energy =                       -113.3215128013410293
  @DF-RKS Final Energy:  -113.32151048788319
    Total Energy =                       -113.3215104878831738
  @DF-RKS Final Energy:  -113.32151039287385
    Total Energy =                       -113.3215103928738472
  **** Optimization is complete! (in 3 steps) ****
    Final optimized geometry and variables:
  @DF-RKS Final Energy:  -113.32151280134094
    Total Energy =                       -113.3215128013409583
  @DF-RKS Final Energy:  -113.32151048788312
    Total Energy =                       -113.3215104878831028
  Basis Set: AUG-CC-PV(T+D)Z
    Blend: AUG-CC-PV(T+D)Z
  Basis Set: (AUG-CC-PV(T+D)Z AUX)
    Blend: AUG-CC-PVTZ-JKFIT
  @DF-RKS Final Energy:  -113.32151039287398
    Total Energy =                       -113.3215103928739751
  Basis Set: AUG-CC-PV(T+D)Z
    Blend: AUG-CC-PV(T+D)Z
  Basis Set: (AUG-CC-PV(T+D)Z AUX)
    Blend: AUG-CC-PVTZ-JKFIT
  @DF-RKS Final Energy:  -113.32151280134119
    Total Energy =                       -113.3215128013411857
  Multiplicity = 1
  Basis Set: AUG-CC-PV(T+D)Z
    Blend: AUG-CC-PV(T+D)Z
  Basis Set: (AUG-CC-PV(T+D)Z AUX)
    Blend: AUG-CC-PVTZ-JKFIT
  @DF-RKS Final Energy:  -113.32151048788340
    Total Energy =                       -113.3215104878834154
    Molecular point group: c2v

    Geometry (in Angstrom), charge = 0, multiplicity = 1:

       Center              X                  Y                   Z               Mass
    ------------   -----------------  -----------------  -----------------  -----------------
         C            0.000000000000     0.000000000000    -0.643245290397    12.000000000000
         O            0.000000000000     0.000000000000     0.482587351565    15.994914619570

  Charge       = 0
  Multiplicity = 1
  Basis Set: AUG-CC-PV(T+D)Z
    Blend: AUG-CC-PV(T+D)Z
  Basis Set: (AUG-CC-PV(T+D)Z AUX)
    Blend: AUG-CC-PVTZ-JKFIT

    Orbital Energies [Eh]
    ---------------------

    Doubly Occupied:

       1A1   -19.325207     2A1   -10.390447     3A1    -1.298970
       4A1    -0.697077     1B1    -0.591735     1B2    -0.591735
       5A1    -0.493152

  @DF-RKS Final Energy:  -113.32151039287416

   => Energetics <=

    Nuclear Repulsion Energy =             22.5615292765867608
    One-Electron Energy =                -198.3715187458508353
    Two-Electron Energy =                  72.2712145918191737
    DFT Exchange-Correlation Energy =      -9.8418614711275332
    Empirical Dispersion Energy =           0.0000000000000000
    VV10 Nonlocal Energy =                  0.0591259556982777
    Total Energy =                       -113.3215103928741598

  Dipole Moment: [D]
     X:     0.0000      Y:     0.0000      Z:     0.0850     Total:     0.0850

  Vibration                       6
  Freq [cm^-1]                2234.0547
  Irrep                           A1
  Reduced mass [u]             13.4388
  Force const [mDyne/A]        39.5182

  ==> Thermochemistry Components <==

  Entropy, S
    Electronic S            0.000 [cal/(mol K)]        0.000 [J/(mol K)]       0.00000000 [mEh/K] (multiplicity = 1)
    Translational S        35.923 [cal/(mol K)]      150.302 [J/(mol K)]       0.05724692 [mEh/K] (mol. weight = 27.9949 [u], P = 101325.00 [Pa])
    Rotational S           11.273 [cal/(mol K)]       47.168 [J/(mol K)]       0.01796530 [mEh/K] (symmetry no. = 1)
    Vibrational S           0.000 [cal/(mol K)]        0.002 [J/(mol K)]       0.00000078 [mEh/K]
  Total S                  47.197 [cal/(mol K)]      197.472 [J/(mol K)]       0.07521300 [mEh/K]
  Correction S              0.000 [cal/(mol K)]        0.000 [J/(mol K)]       0.00000000 [mEh/K]

  Constant volume heat capacity, Cv
    Electronic Cv           0.000 [cal/(mol K)]        0.000 [J/(mol K)]       0.00000000 [mEh/K]
    Translational Cv        2.981 [cal/(mol K)]       12.472 [J/(mol K)]       0.00475022 [mEh/K]
    Rotational Cv           1.987 [cal/(mol K)]        8.314 [J/(mol K)]       0.00316681 [mEh/K]
    Vibrational Cv          0.005 [cal/(mol K)]        0.020 [J/(mol K)]       0.00000765 [mEh/K]
  Total Cv                  4.973 [cal/(mol K)]       20.806 [J/(mol K)]       0.00792468 [mEh/K]
  Correction Cv             0.000 [cal/(mol K)]        0.000 [J/(mol K)]       0.00000000 [mEh/K]

  Constant pressure heat capacity, Cp
    Electronic Cp           0.000 [cal/(mol K)]        0.000 [J/(mol K)]       0.00000000 [mEh/K]
    Translational Cp        4.968 [cal/(mol K)]       20.786 [J/(mol K)]       0.00791703 [mEh/K]
    Rotational Cp           1.987 [cal/(mol K)]        8.314 [J/(mol K)]       0.00316681 [mEh/K]
    Vibrational Cp          0.005 [cal/(mol K)]        0.020 [J/(mol K)]       0.00000765 [mEh/K]
  Total Cp                  6.960 [cal/(mol K)]       29.121 [J/(mol K)]       0.01109149 [mEh/K]
  Correction Cp             0.000 [cal/(mol K)]        0.000 [J/(mol K)]       0.00000000 [mEh/K]

  ==> Thermochemistry Energy Analysis <==

  Raw electronic energy, E0
  Total E0, Electronic energy at well bottom at 0 [K]                 -113.32151280 [Eh]

  Zero-point energy, ZPE_vib = Sum_i nu_i / 2
    Electronic ZPE          0.000 [kcal/mol]        0.000 [kJ/mol]       0.00000000 [Eh]
    Translational ZPE       0.000 [kcal/mol]        0.000 [kJ/mol]       0.00000000 [Eh]
    Rotational ZPE          0.000 [kcal/mol]        0.000 [kJ/mol]       0.00000000 [Eh]
    Vibrational ZPE         3.194 [kcal/mol]       13.363 [kJ/mol]       0.00508955 [Eh]        1117.027 [cm^-1]
  Correction ZPE            3.194 [kcal/mol]       13.363 [kJ/mol]       0.00508955 [Eh]        1117.027 [cm^-1]
  Total ZPE, Electronic energy at 0 [K]                               -113.31642325 [Eh]

  Thermal Energy, E (includes ZPE)
    Electronic E            0.000 [kcal/mol]        0.000 [kJ/mol]       0.00000000 [Eh]
    Translational E         0.889 [kcal/mol]        3.718 [kJ/mol]       0.00141628 [Eh]
    Rotational E            0.592 [kcal/mol]        2.479 [kJ/mol]       0.00094418 [Eh]
    Vibrational E           3.194 [kcal/mol]       13.363 [kJ/mol]       0.00508976 [Eh]
  Correction E              4.675 [kcal/mol]       19.561 [kJ/mol]       0.00745022 [Eh]
  Total E, Electronic energy at  298.15 [K]                           -113.31406258 [Eh]

  Enthalpy, H_trans = E_trans + k_B * T
    Electronic H            0.000 [kcal/mol]        0.000 [kJ/mol]       0.00000000 [Eh]
    Translational H         1.481 [kcal/mol]        6.197 [kJ/mol]       0.00236046 [Eh]
    Rotational H            0.592 [kcal/mol]        2.479 [kJ/mol]       0.00094418 [Eh]
    Vibrational H           3.194 [kcal/mol]       13.363 [kJ/mol]       0.00508976 [Eh]
  Correction H              5.268 [kcal/mol]       22.040 [kJ/mol]       0.00839441 [Eh]
  Total H, Enthalpy at  298.15 [K]                                    -113.31311839 [Eh]

  Gibbs free energy, G = H - T * S
    Electronic G            0.000 [kcal/mol]        0.000 [kJ/mol]       0.00000000 [Eh]
    Translational G        -9.229 [kcal/mol]      -38.615 [kJ/mol]      -0.01470771 [Eh]
    Rotational G           -2.769 [kcal/mol]      -11.584 [kJ/mol]      -0.00441217 [Eh]
    Vibrational G           3.194 [kcal/mol]       13.363 [kJ/mol]       0.00508953 [Eh]
  Correction G             -8.804 [kcal/mol]      -36.837 [kJ/mol]      -0.01403035 [Eh]
  Total G, Free enthalpy at  298.15 [K]                               -113.33554315 [Eh]

*** Psi4 exiting successfully. Buy a developer a beer!
