                               Psi4 1.3.2 release

  ==> Input File <==

--------------------------------------------------------------------------
memory 144 GB

molecule {
0 1
C 0.0000000000 0.0000000000 0.0000000000
S 0.0000000000 0.0000000000 1.5576337400
S 0.0000000000 0.0000000000 -1.5576337400
}

set dynamic_level 1
set basis aug-cc-pV(T+d)Z

optimize("wB97X-V")
frequencies("wB97X-V")
--------------------------------------------------------------------------

    Molecular point group: d2h
  Charge       = 0
  Multiplicity = 1
  Basis Set: AUG-CC-PV(T+D)Z
    Blend: AUG-CC-PV(T+D)Z
  Basis Set: (AUG-CC-PV(T+D)Z AUX)
    Blend: AUG-CC-PVTZ-JKFIT
  @DF-RKS Final Energy:  -834.39702045123806
    Total Energy =                       -834.3970204512380633
    Molecular point group: d2h
  Basis Set: AUG-CC-PV(T+D)Z
    Blend: AUG-CC-PV(T+D)Z
  Basis Set: (AUG-CC-PV(T+D)Z AUX)
    Blend: AUG-CC-PVTZ-JKFIT
  @DF-RKS Final Energy:  -834.39703411529092
    Total Energy =                       -834.3970341152909214
  Basis Set: AUG-CC-PV(T+D)Z
    Blend: AUG-CC-PV(T+D)Z
  Basis Set: (AUG-CC-PV(T+D)Z AUX)
    Blend: AUG-CC-PVTZ-JKFIT
  @DF-RKS Final Energy:  -834.39700634627684
    Total Energy =                       -834.3970063462770668
  Basis Set: AUG-CC-PV(T+D)Z
    Blend: AUG-CC-PV(T+D)Z
  Basis Set: (AUG-CC-PV(T+D)Z AUX)
    Blend: AUG-CC-PVTZ-JKFIT
  @DF-RKS Final Energy:  -834.39723499588194
    Total Energy =                       -834.3972349958818313
  @DF-RKS Final Energy:  -834.39723535760743
    Total Energy =                       -834.3972353576074283
  @DF-RKS Final Energy:  -834.39723416563447
    Total Energy =                       -834.3972341656343588
  @DF-RKS Final Energy:  -834.39723537132045
    Total Energy =                       -834.3972353713203347
  @DF-RKS Final Energy:  -834.39723512570686
    Total Energy =                       -834.3972351257069704
  @DF-RKS Final Energy:  -834.39723515701485
    Total Energy =                       -834.3972351570148476
  **** Optimization is complete! (in 3 steps) ****
    Final optimized geometry and variables:
  @DF-RKS Final Energy:  -834.39723537132090
    Total Energy =                       -834.3972353713207895
  @DF-RKS Final Energy:  -834.39723512584771
    Total Energy =                       -834.3972351258478284
  @DF-RKS Final Energy:  -834.39723515701507
    Total Energy =                       -834.3972351570150749
  @DF-RKS Final Energy:  -834.39723537132079
    Total Energy =                       -834.3972353713207895
  @DF-RKS Final Energy:  -834.39723512584760
    Total Energy =                       -834.3972351258476010
  Basis Set: AUG-CC-PV(T+D)Z
    Blend: AUG-CC-PV(T+D)Z
  Basis Set: (AUG-CC-PV(T+D)Z AUX)
    Blend: AUG-CC-PVTZ-JKFIT
  @DF-RKS Final Energy:  -834.39723515701485
    Total Energy =                       -834.3972351570150749
  Basis Set: AUG-CC-PV(T+D)Z
    Blend: AUG-CC-PV(T+D)Z
  Basis Set: (AUG-CC-PV(T+D)Z AUX)
    Blend: AUG-CC-PVTZ-JKFIT
  @DF-RKS Final Energy:  -834.39723418799781
    Total Energy =                       -834.3972341879978103
  Multiplicity = 1
  Basis Set: AUG-CC-PV(T+D)Z
    Blend: AUG-CC-PV(T+D)Z
  Basis Set: (AUG-CC-PV(T+D)Z AUX)
    Blend: AUG-CC-PVTZ-JKFIT
  @DF-RKS Final Energy:  -834.39723529490777
    Total Energy =                       -834.3972352949077731
    Molecular point group: c2v

    Geometry (in Angstrom), charge = 0, multiplicity = 1:

       Center              X                  Y                   Z               Mass
    ------------   -----------------  -----------------  -----------------  -----------------
         C           -0.000700864006     0.000000000000     0.000000000000    12.000000000000
         S            0.000131526794     0.000000000000     1.547471607505    31.972071174400
         S            0.000131526794     0.000000000000    -1.547471607505    31.972071174400

  Charge       = 0
  Multiplicity = 1
  Basis Set: AUG-CC-PV(T+D)Z
    Blend: AUG-CC-PV(T+D)Z
  Basis Set: (AUG-CC-PV(T+D)Z AUX)
    Blend: AUG-CC-PVTZ-JKFIT

    Orbital Energies [Eh]
    ---------------------

    Doubly Occupied:

       1B2   -88.919633     1A1   -88.919631     2A1   -10.413357
       2B2    -8.078015     3A1    -8.077994     4A1    -6.033329
       3B2    -6.033328     1A2    -6.029125     4B2    -6.029125
       1B1    -6.029124     5A1    -6.029124     6A1    -0.998812
       5B2    -0.900799     7A1    -0.622323     6B2    -0.538461
       8A1    -0.506206     2B1    -0.506206     2A2    -0.365551
       7B2    -0.365551

  @DF-RKS Final Energy:  -834.39723529058676

   => Energetics <=

    Nuclear Repulsion Energy =            109.4279803871042418
    One-Electron Energy =               -1367.9293457001253955
    Two-Electron Energy =                 466.4437470267211552
    DFT Exchange-Correlation Energy =     -42.4966636772790594
    Empirical Dispersion Energy =           0.0000000000000000
    VV10 Nonlocal Energy =                  0.1570466729923187
    Total Energy =                       -834.3972352905865364

  Dipole Moment: [D]
     X:     0.0007      Y:     0.0000      Z:     0.0000     Total:     0.0007

  Vibration                       6                   7                   8
  Freq [cm^-1]                 401.9138            413.1213            697.1222
  Irrep                          B2u                 B3u                  Ag
  Reduced mass [u]             13.3142             13.3142             31.9721
  Force const [mDyne/A]         1.2672              1.3388              9.1546

  Vibration                       9
  Freq [cm^-1]                1581.6155
  Irrep                          B1u
  Reduced mass [u]             13.3142
  Force const [mDyne/A]        19.6230

  ==> Thermochemistry Components <==

  Entropy, S
    Electronic S            0.000 [cal/(mol K)]        0.000 [J/(mol K)]       0.00000000 [mEh/K] (multiplicity = 1)
    Translational S        38.898 [cal/(mol K)]      162.748 [J/(mol K)]       0.06198752 [mEh/K] (mol. weight = 75.9441 [u], P = 101325.00 [Pa])
    Rotational S           15.594 [cal/(mol K)]       65.244 [J/(mol K)]       0.02485030 [mEh/K] (symmetry no. = 2)
    Vibrational S           2.189 [cal/(mol K)]        9.159 [J/(mol K)]       0.00348858 [mEh/K]
  Total S                  56.681 [cal/(mol K)]      237.152 [J/(mol K)]       0.09032641 [mEh/K]
  Correction S              0.000 [cal/(mol K)]        0.000 [J/(mol K)]       0.00000000 [mEh/K]

  Constant volume heat capacity, Cv
    Electronic Cv           0.000 [cal/(mol K)]        0.000 [J/(mol K)]       0.00000000 [mEh/K]
    Translational Cv        2.981 [cal/(mol K)]       12.472 [J/(mol K)]       0.00475022 [mEh/K]
    Rotational Cv           1.987 [cal/(mol K)]        8.314 [J/(mol K)]       0.00316681 [mEh/K]
    Vibrational Cv          3.799 [cal/(mol K)]       15.893 [J/(mol K)]       0.00605348 [mEh/K]
  Total Cv                  8.767 [cal/(mol K)]       36.680 [J/(mol K)]       0.01397051 [mEh/K]
  Correction Cv             0.000 [cal/(mol K)]        0.000 [J/(mol K)]       0.00000000 [mEh/K]

  Constant pressure heat capacity, Cp
    Electronic Cp           0.000 [cal/(mol K)]        0.000 [J/(mol K)]       0.00000000 [mEh/K]
    Translational Cp        4.968 [cal/(mol K)]       20.786 [J/(mol K)]       0.00791703 [mEh/K]
    Rotational Cp           1.987 [cal/(mol K)]        8.314 [J/(mol K)]       0.00316681 [mEh/K]
    Vibrational Cp          3.799 [cal/(mol K)]       15.893 [J/(mol K)]       0.00605348 [mEh/K]
  Total Cp                 10.754 [cal/(mol K)]       44.994 [J/(mol K)]       0.01713732 [mEh/K]
  Correction Cp             0.000 [cal/(mol K)]        0.000 [J/(mol K)]       0.00000000 [mEh/K]

  ==> Thermochemistry Energy Analysis <==

  Raw electronic energy, E0
  Total E0, Electronic energy at well bottom at 0 [K]                 -834.39723537 [Eh]

  Zero-point energy, ZPE_vib = Sum_i nu_i / 2
    Electronic ZPE          0.000 [kcal/mol]        0.000 [kJ/mol]       0.00000000 [Eh]
    Translational ZPE       0.000 [kcal/mol]        0.000 [kJ/mol]       0.00000000 [Eh]
    Rotational ZPE          0.000 [kcal/mol]        0.000 [kJ/mol]       0.00000000 [Eh]
    Vibrational ZPE         4.423 [kcal/mol]       18.505 [kJ/mol]       0.00704813 [Eh]        1546.886 [cm^-1]
  Correction ZPE            4.423 [kcal/mol]       18.505 [kJ/mol]       0.00704813 [Eh]        1546.886 [cm^-1]
  Total ZPE, Electronic energy at 0 [K]                               -834.39018724 [Eh]

  Thermal Energy, E (includes ZPE)
    Electronic E            0.000 [kcal/mol]        0.000 [kJ/mol]       0.00000000 [Eh]
    Translational E         0.889 [kcal/mol]        3.718 [kJ/mol]       0.00141628 [Eh]
    Rotational E            0.592 [kcal/mol]        2.479 [kJ/mol]       0.00094418 [Eh]
    Vibrational E           4.876 [kcal/mol]       20.399 [kJ/mol]       0.00776975 [Eh]
  Correction E              6.357 [kcal/mol]       26.597 [kJ/mol]       0.01013021 [Eh]
  Total E, Electronic energy at  298.15 [K]                           -834.38710516 [Eh]

  Enthalpy, H_trans = E_trans + k_B * T
    Electronic H            0.000 [kcal/mol]        0.000 [kJ/mol]       0.00000000 [Eh]
    Translational H         1.481 [kcal/mol]        6.197 [kJ/mol]       0.00236046 [Eh]
    Rotational H            0.592 [kcal/mol]        2.479 [kJ/mol]       0.00094418 [Eh]
    Vibrational H           4.876 [kcal/mol]       20.399 [kJ/mol]       0.00776975 [Eh]
  Correction H              6.949 [kcal/mol]       29.076 [kJ/mol]       0.01107440 [Eh]
  Total H, Enthalpy at  298.15 [K]                                    -834.38616097 [Eh]

  Gibbs free energy, G = H - T * S
    Electronic G            0.000 [kcal/mol]        0.000 [kJ/mol]       0.00000000 [Eh]
    Translational G       -10.116 [kcal/mol]      -42.326 [kJ/mol]      -0.01612112 [Eh]
    Rotational G           -4.057 [kcal/mol]      -16.974 [kJ/mol]      -0.00646493 [Eh]
    Vibrational G           4.223 [kcal/mol]       17.669 [kJ/mol]       0.00672963 [Eh]
  Correction G             -9.950 [kcal/mol]      -41.631 [kJ/mol]      -0.01585642 [Eh]
  Total G, Free enthalpy at  298.15 [K]                               -834.41309179 [Eh]

*** Psi4 exiting successfully. Buy a developer a beer!
