                               Psi4 1.3.2 release

  ==> Input File <==

--------------------------------------------------------------------------
memory 144 GB

molecule {
0 1
C 0.0000000000 0.0000000000 0.0000000000
S 0.0000000000 0.0000000000 1.5415329200
}

set dynamic_level 1
set basis aug-cc-pV(T+d)Z

optimize("wB97X-V")
frequencies("wB97X-V")
--------------------------------------------------------------------------

    Molecular point group: c2v
  Charge       = 0
  Multiplicity = 1
  Basis Set: AUG-CC-PV(T+D)Z
    Blend: AUG-CC-PV(T+D)Z
  Basis Set: (AUG-CC-PV(T+D)Z AUX)
    Blend: AUG-CC-PVTZ-JKFIT
  @DF-RKS Final Energy:  -436.16799145259080
    Total Energy =                       -436.1679914525907975
    Molecular point group: c2v
  Basis Set: AUG-CC-PV(T+D)Z
    Blend: AUG-CC-PV(T+D)Z
  Basis Set: (AUG-CC-PV(T+D)Z AUX)
    Blend: AUG-CC-PVTZ-JKFIT
  @DF-RKS Final Energy:  -436.16795662593626
    Total Energy =                       -436.1679566259363128
  Basis Set: AUG-CC-PV(T+D)Z
    Blend: AUG-CC-PV(T+D)Z
  Basis Set: (AUG-CC-PV(T+D)Z AUX)
    Blend: AUG-CC-PVTZ-JKFIT
  @DF-RKS Final Energy:  -436.16802467440488
    Total Energy =                       -436.1680246744047622
  Basis Set: AUG-CC-PV(T+D)Z
    Blend: AUG-CC-PV(T+D)Z
  Basis Set: (AUG-CC-PV(T+D)Z AUX)
    Blend: AUG-CC-PVTZ-JKFIT
  @DF-RKS Final Energy:  -436.16833812547435
    Total Energy =                       -436.1683381254744063
  @DF-RKS Final Energy:  -436.16833408266029
    Total Energy =                       -436.1683340826602944
  @DF-RKS Final Energy:  -436.16834042051119
    Total Energy =                       -436.1683404205112424
  @DF-RKS Final Energy:  -436.16834098377439
    Total Energy =                       -436.1683409837743852
  @DF-RKS Final Energy:  -436.16834025615208
    Total Energy =                       -436.1683402561520779
  @DF-RKS Final Energy:  -436.16833994371609
    Total Energy =                       -436.1683399437160915
  **** Optimization is complete! (in 3 steps) ****
    Final optimized geometry and variables:
  @DF-RKS Final Energy:  -436.16834098377444
    Total Energy =                       -436.1683409837744989
  @DF-RKS Final Energy:  -436.16834025615242
    Total Energy =                       -436.1683402561524758
  Basis Set: AUG-CC-PV(T+D)Z
    Blend: AUG-CC-PV(T+D)Z
  Basis Set: (AUG-CC-PV(T+D)Z AUX)
    Blend: AUG-CC-PVTZ-JKFIT
  @DF-RKS Final Energy:  -436.16833994371626
    Total Energy =                       -436.1683399437162620
  Basis Set: AUG-CC-PV(T+D)Z
    Blend: AUG-CC-PV(T+D)Z
  Basis Set: (AUG-CC-PV(T+D)Z AUX)
    Blend: AUG-CC-PVTZ-JKFIT
  @DF-RKS Final Energy:  -436.16834098377473
    Total Energy =                       -436.1683409837746694
  Multiplicity = 1
  Basis Set: AUG-CC-PV(T+D)Z
    Blend: AUG-CC-PV(T+D)Z
  Basis Set: (AUG-CC-PV(T+D)Z AUX)
    Blend: AUG-CC-PVTZ-JKFIT
  @DF-RKS Final Energy:  -436.16834025615293
    Total Energy =                       -436.1683402561529306
    Molecular point group: c2v

    Geometry (in Angstrom), charge = 0, multiplicity = 1:

       Center              X                  Y                   Z               Mass
    ------------   -----------------  -----------------  -----------------  -----------------
         C            0.000000000000     0.000000000000    -1.106970201077    12.000000000000
         S            0.000000000000     0.000000000000     0.415476443189    31.972071174400

  Charge       = 0
  Multiplicity = 1
  Basis Set: AUG-CC-PV(T+D)Z
    Blend: AUG-CC-PV(T+D)Z
  Basis Set: (AUG-CC-PV(T+D)Z AUX)
    Blend: AUG-CC-PVTZ-JKFIT

    Orbital Energies [Eh]
    ---------------------

    Doubly Occupied:

       1A1   -88.936789     2A1   -10.377386     3A1    -8.098305
       1B2    -6.050940     1B1    -6.050940     4A1    -6.049841
       5A1    -0.971499     6A1    -0.637423     2B2    -0.460155
       2B1    -0.460155     7A1    -0.420779

  @DF-RKS Final Energy:  -436.16833994371632

   => Energetics <=

    Nuclear Repulsion Energy =             33.3680082751374272
    One-Electron Energy =                -666.3643979098845875
    Two-Electron Energy =                 219.7904724732595128
    DFT Exchange-Correlation Energy =     -23.0544764391639276
    Empirical Dispersion Energy =           0.0000000000000000
    VV10 Nonlocal Energy =                  0.0920536569352606
    Total Energy =                       -436.1683399437163189

  Dipole Moment: [D]
     X:     0.0000      Y:     0.0000      Z:     1.9701     Total:     1.9701

  Vibration                       6
  Freq [cm^-1]                1366.8980
  Irrep                           A1
  Reduced mass [u]             14.4661
  Force const [mDyne/A]        15.9248

  ==> Thermochemistry Components <==

  Entropy, S
    Electronic S            0.000 [cal/(mol K)]        0.000 [J/(mol K)]       0.00000000 [mEh/K] (multiplicity = 1)
    Translational S        37.269 [cal/(mol K)]      155.933 [J/(mol K)]       0.05939180 [mEh/K] (mol. weight = 43.9721 [u], P = 101325.00 [Pa])
    Rotational S           12.951 [cal/(mol K)]       54.186 [J/(mol K)]       0.02063819 [mEh/K] (symmetry no. = 1)
    Vibrational S           0.021 [cal/(mol K)]        0.086 [J/(mol K)]       0.00003289 [mEh/K]
  Total S                  50.240 [cal/(mol K)]      210.205 [J/(mol K)]       0.08006288 [mEh/K]
  Correction S              0.000 [cal/(mol K)]        0.000 [J/(mol K)]       0.00000000 [mEh/K]

  Constant volume heat capacity, Cv
    Electronic Cv           0.000 [cal/(mol K)]        0.000 [J/(mol K)]       0.00000000 [mEh/K]
    Translational Cv        2.981 [cal/(mol K)]       12.472 [J/(mol K)]       0.00475022 [mEh/K]
    Rotational Cv           1.987 [cal/(mol K)]        8.314 [J/(mol K)]       0.00316681 [mEh/K]
    Vibrational Cv          0.118 [cal/(mol K)]        0.495 [J/(mol K)]       0.00018867 [mEh/K]
  Total Cv                  5.086 [cal/(mol K)]       21.281 [J/(mol K)]       0.00810569 [mEh/K]
  Correction Cv             0.000 [cal/(mol K)]        0.000 [J/(mol K)]       0.00000000 [mEh/K]

  Constant pressure heat capacity, Cp
    Electronic Cp           0.000 [cal/(mol K)]        0.000 [J/(mol K)]       0.00000000 [mEh/K]
    Translational Cp        4.968 [cal/(mol K)]       20.786 [J/(mol K)]       0.00791703 [mEh/K]
    Rotational Cp           1.987 [cal/(mol K)]        8.314 [J/(mol K)]       0.00316681 [mEh/K]
    Vibrational Cp          0.118 [cal/(mol K)]        0.495 [J/(mol K)]       0.00018867 [mEh/K]
  Total Cp                  7.074 [cal/(mol K)]       29.596 [J/(mol K)]       0.01127250 [mEh/K]
  Correction Cp             0.000 [cal/(mol K)]        0.000 [J/(mol K)]       0.00000000 [mEh/K]

  ==> Thermochemistry Energy Analysis <==

  Raw electronic energy, E0
  Total E0, Electronic energy at well bottom at 0 [K]                 -436.16834098 [Eh]

  Zero-point energy, ZPE_vib = Sum_i nu_i / 2
    Electronic ZPE          0.000 [kcal/mol]        0.000 [kJ/mol]       0.00000000 [Eh]
    Translational ZPE       0.000 [kcal/mol]        0.000 [kJ/mol]       0.00000000 [Eh]
    Rotational ZPE          0.000 [kcal/mol]        0.000 [kJ/mol]       0.00000000 [Eh]
    Vibrational ZPE         1.954 [kcal/mol]        8.176 [kJ/mol]       0.00311402 [Eh]         683.449 [cm^-1]
  Correction ZPE            1.954 [kcal/mol]        8.176 [kJ/mol]       0.00311402 [Eh]         683.449 [cm^-1]
  Total ZPE, Electronic energy at 0 [K]                               -436.16522696 [Eh]

  Thermal Energy, E (includes ZPE)
    Electronic E            0.000 [kcal/mol]        0.000 [kJ/mol]       0.00000000 [Eh]
    Translational E         0.889 [kcal/mol]        3.718 [kJ/mol]       0.00141628 [Eh]
    Rotational E            0.592 [kcal/mol]        2.479 [kJ/mol]       0.00094418 [Eh]
    Vibrational E           1.959 [kcal/mol]        8.198 [kJ/mol]       0.00312254 [Eh]
  Correction E              3.441 [kcal/mol]       14.396 [kJ/mol]       0.00548300 [Eh]
  Total E, Electronic energy at  298.15 [K]                           -436.16285798 [Eh]

  Enthalpy, H_trans = E_trans + k_B * T
    Electronic H            0.000 [kcal/mol]        0.000 [kJ/mol]       0.00000000 [Eh]
    Translational H         1.481 [kcal/mol]        6.197 [kJ/mol]       0.00236046 [Eh]
    Rotational H            0.592 [kcal/mol]        2.479 [kJ/mol]       0.00094418 [Eh]
    Vibrational H           1.959 [kcal/mol]        8.198 [kJ/mol]       0.00312254 [Eh]
  Correction H              4.033 [kcal/mol]       16.875 [kJ/mol]       0.00642718 [Eh]
  Total H, Enthalpy at  298.15 [K]                                    -436.16191380 [Eh]

  Gibbs free energy, G = H - T * S
    Electronic G            0.000 [kcal/mol]        0.000 [kJ/mol]       0.00000000 [Eh]
    Translational G        -9.631 [kcal/mol]      -40.294 [kJ/mol]      -0.01534720 [Eh]
    Rotational G           -3.269 [kcal/mol]      -13.676 [kJ/mol]      -0.00520909 [Eh]
    Vibrational G           1.953 [kcal/mol]        8.172 [kJ/mol]       0.00311273 [Eh]
  Correction G            -10.946 [kcal/mol]      -45.798 [kJ/mol]      -0.01744356 [Eh]
  Total G, Free enthalpy at  298.15 [K]                               -436.18578455 [Eh]

*** Psi4 exiting successfully. Buy a developer a beer!
