                               Psi4 1.3.2 release

  ==> Input File <==

--------------------------------------------------------------------------
memory 144 GB

molecule {
0 1
F 0.0000000000 0.0000000000 0.0000000000
F 0.0000000000 0.0000000000 1.4129000000
}

set dynamic_level 1
set basis aug-cc-pV(T+d)Z

optimize("wB97X-V")
frequencies("wB97X-V")
--------------------------------------------------------------------------

    Molecular point group: d2h
  Charge       = 0
  Multiplicity = 1
  Basis Set: AUG-CC-PV(T+D)Z
    Blend: AUG-CC-PV(T+D)Z
  Basis Set: (AUG-CC-PV(T+D)Z AUX)
    Blend: AUG-CC-PVTZ-JKFIT
  @DF-RKS Final Energy:  -199.51955269989256
    Total Energy =                       -199.5195526998925573
    Molecular point group: d2h
  Basis Set: AUG-CC-PV(T+D)Z
    Blend: AUG-CC-PV(T+D)Z
  Basis Set: (AUG-CC-PV(T+D)Z AUX)
    Blend: AUG-CC-PVTZ-JKFIT
  @DF-RKS Final Energy:  -199.51951106472805
    Total Energy =                       -199.5195110647280217
  Basis Set: AUG-CC-PV(T+D)Z
    Blend: AUG-CC-PV(T+D)Z
  Basis Set: (AUG-CC-PV(T+D)Z AUX)
    Blend: AUG-CC-PVTZ-JKFIT
  @DF-RKS Final Energy:  -199.51959337955910
    Total Energy =                       -199.5195933795591259
  Basis Set: AUG-CC-PV(T+D)Z
    Blend: AUG-CC-PV(T+D)Z
  Basis Set: (AUG-CC-PV(T+D)Z AUX)
    Blend: AUG-CC-PVTZ-JKFIT
  @DF-RKS Final Energy:  -199.52037284580078
    Total Energy =                       -199.5203728458007788
  @DF-RKS Final Energy:  -199.52036877544543
    Total Energy =                       -199.5203687754454052
  @DF-RKS Final Energy:  -199.52037576242043
    Total Energy =                       -199.5203757624204570
  @DF-RKS Final Energy:  -199.52037805324008
    Total Energy =                       -199.5203780532400799
  @DF-RKS Final Energy:  -199.52037783551432
    Total Energy =                       -199.5203778355143243
  @DF-RKS Final Energy:  -199.52037709712934
    Total Energy =                       -199.5203770971293409
  **** Optimization is complete! (in 3 steps) ****
    Final optimized geometry and variables:
  @DF-RKS Final Energy:  -199.52037805323994
    Total Energy =                       -199.5203780532399662
  @DF-RKS Final Energy:  -199.52037783551418
    Total Energy =                       -199.5203778355141822
  Basis Set: AUG-CC-PV(T+D)Z
    Blend: AUG-CC-PV(T+D)Z
  Basis Set: (AUG-CC-PV(T+D)Z AUX)
    Blend: AUG-CC-PVTZ-JKFIT
  @DF-RKS Final Energy:  -199.52037709712926
    Total Energy =                       -199.5203770971292556
  Basis Set: AUG-CC-PV(T+D)Z
    Blend: AUG-CC-PV(T+D)Z
  Basis Set: (AUG-CC-PV(T+D)Z AUX)
    Blend: AUG-CC-PVTZ-JKFIT
  @DF-RKS Final Energy:  -199.52037805323997
    Total Energy =                       -199.5203780532399946
  Multiplicity = 1
  Basis Set: AUG-CC-PV(T+D)Z
    Blend: AUG-CC-PV(T+D)Z
  Basis Set: (AUG-CC-PV(T+D)Z AUX)
    Blend: AUG-CC-PVTZ-JKFIT
  @DF-RKS Final Energy:  -199.52037783551410
    Total Energy =                       -199.5203778355140685
    Molecular point group: d2h

    Geometry (in Angstrom), charge = 0, multiplicity = 1:

       Center              X                  Y                   Z               Mass
    ------------   -----------------  -----------------  -----------------  -----------------
         F            0.000000000000     0.000000000000    -0.689233439031    18.998403162730
         F            0.000000000000     0.000000000000     0.689233439031    18.998403162730

  Charge       = 0
  Multiplicity = 1
  Basis Set: AUG-CC-PV(T+D)Z
    Blend: AUG-CC-PV(T+D)Z
  Basis Set: (AUG-CC-PV(T+D)Z AUX)
    Blend: AUG-CC-PVTZ-JKFIT

    Orbital Energies [Eh]
    ---------------------

    Doubly Occupied:

       1Ag   -24.877537     1B1u  -24.877531     2Ag    -1.500772
       2B1u   -1.234074     3Ag    -0.721776     1B2u   -0.669179
       1B3u   -0.669179     1B3g   -0.524667     1B2g   -0.524667

  @DF-RKS Final Energy:  -199.52037709712934

   => Energetics <=

    Nuclear Repulsion Energy =             31.0949466733117674
    One-Electron Energy =                -339.8984590200476532
    Two-Electron Energy =                 124.2175859016990103
    DFT Exchange-Correlation Energy =     -15.0114597591496342
    Empirical Dispersion Energy =           0.0000000000000000
    VV10 Nonlocal Energy =                  0.0770091070571635
    Total Energy =                       -199.5203770971293409

  Dipole Moment: [D]
     X:     0.0000      Y:     0.0000      Z:     0.0000     Total:     0.0000

  Vibration                       6
  Freq [cm^-1]                1113.8792
  Irrep                           Ag
  Reduced mass [u]             18.9984
  Force const [mDyne/A]        13.8881

  ==> Thermochemistry Components <==

  Entropy, S
    Electronic S            0.000 [cal/(mol K)]        0.000 [J/(mol K)]       0.00000000 [mEh/K] (multiplicity = 1)
    Translational S        36.834 [cal/(mol K)]      154.112 [J/(mol K)]       0.05869802 [mEh/K] (mol. weight = 37.9968 [u], P = 101325.00 [Pa])
    Rotational S           11.347 [cal/(mol K)]       47.478 [J/(mol K)]       0.01808328 [mEh/K] (symmetry no. = 2)
    Vibrational S           0.059 [cal/(mol K)]        0.246 [J/(mol K)]       0.00009387 [mEh/K]
  Total S                  48.240 [cal/(mol K)]      201.836 [J/(mol K)]       0.07687517 [mEh/K]
  Correction S              0.000 [cal/(mol K)]        0.000 [J/(mol K)]       0.00000000 [mEh/K]

  Constant volume heat capacity, Cv
    Electronic Cv           0.000 [cal/(mol K)]        0.000 [J/(mol K)]       0.00000000 [mEh/K]
    Translational Cv        2.981 [cal/(mol K)]       12.472 [J/(mol K)]       0.00475022 [mEh/K]
    Rotational Cv           1.987 [cal/(mol K)]        8.314 [J/(mol K)]       0.00316681 [mEh/K]
    Vibrational Cv          0.268 [cal/(mol K)]        1.123 [J/(mol K)]       0.00042758 [mEh/K]
  Total Cv                  5.236 [cal/(mol K)]       21.909 [J/(mol K)]       0.00834460 [mEh/K]
  Correction Cv             0.000 [cal/(mol K)]        0.000 [J/(mol K)]       0.00000000 [mEh/K]

  Constant pressure heat capacity, Cp
    Electronic Cp           0.000 [cal/(mol K)]        0.000 [J/(mol K)]       0.00000000 [mEh/K]
    Translational Cp        4.968 [cal/(mol K)]       20.786 [J/(mol K)]       0.00791703 [mEh/K]
    Rotational Cp           1.987 [cal/(mol K)]        8.314 [J/(mol K)]       0.00316681 [mEh/K]
    Vibrational Cp          0.268 [cal/(mol K)]        1.123 [J/(mol K)]       0.00042758 [mEh/K]
  Total Cp                  7.224 [cal/(mol K)]       30.223 [J/(mol K)]       0.01151141 [mEh/K]
  Correction Cp             0.000 [cal/(mol K)]        0.000 [J/(mol K)]       0.00000000 [mEh/K]

  ==> Thermochemistry Energy Analysis <==

  Raw electronic energy, E0
  Total E0, Electronic energy at well bottom at 0 [K]                 -199.52037805 [Eh]

  Zero-point energy, ZPE_vib = Sum_i nu_i / 2
    Electronic ZPE          0.000 [kcal/mol]        0.000 [kJ/mol]       0.00000000 [Eh]
    Translational ZPE       0.000 [kcal/mol]        0.000 [kJ/mol]       0.00000000 [Eh]
    Rotational ZPE          0.000 [kcal/mol]        0.000 [kJ/mol]       0.00000000 [Eh]
    Vibrational ZPE         1.592 [kcal/mol]        6.662 [kJ/mol]       0.00253760 [Eh]         556.940 [cm^-1]
  Correction ZPE            1.592 [kcal/mol]        6.662 [kJ/mol]       0.00253760 [Eh]         556.940 [cm^-1]
  Total ZPE, Electronic energy at 0 [K]                               -199.51784045 [Eh]

  Thermal Energy, E (includes ZPE)
    Electronic E            0.000 [kcal/mol]        0.000 [kJ/mol]       0.00000000 [Eh]
    Translational E         0.889 [kcal/mol]        3.718 [kJ/mol]       0.00141628 [Eh]
    Rotational E            0.592 [kcal/mol]        2.479 [kJ/mol]       0.00094418 [Eh]
    Vibrational E           1.607 [kcal/mol]        6.724 [kJ/mol]       0.00256121 [Eh]
  Correction E              3.088 [kcal/mol]       12.922 [kJ/mol]       0.00492167 [Eh]
  Total E, Electronic energy at  298.15 [K]                           -199.51545638 [Eh]

  Enthalpy, H_trans = E_trans + k_B * T
    Electronic H            0.000 [kcal/mol]        0.000 [kJ/mol]       0.00000000 [Eh]
    Translational H         1.481 [kcal/mol]        6.197 [kJ/mol]       0.00236046 [Eh]
    Rotational H            0.592 [kcal/mol]        2.479 [kJ/mol]       0.00094418 [Eh]
    Vibrational H           1.607 [kcal/mol]        6.724 [kJ/mol]       0.00256121 [Eh]
  Correction H              3.681 [kcal/mol]       15.401 [kJ/mol]       0.00586586 [Eh]
  Total H, Enthalpy at  298.15 [K]                                    -199.51451220 [Eh]

  Gibbs free energy, G = H - T * S
    Electronic G            0.000 [kcal/mol]        0.000 [kJ/mol]       0.00000000 [Eh]
    Translational G        -9.501 [kcal/mol]      -39.751 [kJ/mol]      -0.01514035 [Eh]
    Rotational G           -2.791 [kcal/mol]      -11.677 [kJ/mol]      -0.00444734 [Eh]
    Vibrational G           1.590 [kcal/mol]        6.651 [kJ/mol]       0.00253322 [Eh]
  Correction G            -10.702 [kcal/mol]      -44.777 [kJ/mol]      -0.01705447 [Eh]
  Total G, Free enthalpy at  298.15 [K]                               -199.53743253 [Eh]

*** Psi4 exiting successfully. Buy a developer a beer!
