                               Psi4 1.3.2 release

  ==> Input File <==

--------------------------------------------------------------------------
memory 144 GB

molecule {
0 1
O 0.0000000000 0.0000000000 0.0000000000
C 0.0000000000 0.0000000000 1.2066000000
H 0.9369544103 0.0000000000 1.7870836544
H -0.9369544103 0.0000000000 1.7870836544
}

set dynamic_level 1
set basis aug-cc-pV(T+d)Z

optimize("wB97X-V")
frequencies("wB97X-V")
--------------------------------------------------------------------------

    Molecular point group: c2v
  Charge       = 0
  Multiplicity = 1
  Basis Set: AUG-CC-PV(T+D)Z
    Blend: AUG-CC-PV(T+D)Z
  Basis Set: (AUG-CC-PV(T+D)Z AUX)
    Blend: AUG-CC-PVTZ-JKFIT
  @DF-RKS Final Energy:  -114.50751096802510
    Total Energy =                       -114.5075109680251018
    Molecular point group: c2v
  Basis Set: AUG-CC-PV(T+D)Z
    Blend: AUG-CC-PV(T+D)Z
  Basis Set: (AUG-CC-PV(T+D)Z AUX)
    Blend: AUG-CC-PVTZ-JKFIT
  @DF-RKS Final Energy:  -114.50749230881452
    Total Energy =                       -114.5074923088145198
  Basis Set: AUG-CC-PV(T+D)Z
    Blend: AUG-CC-PV(T+D)Z
  Basis Set: (AUG-CC-PV(T+D)Z AUX)
    Blend: AUG-CC-PVTZ-JKFIT
  @DF-RKS Final Energy:  -114.50752669504526
    Total Energy =                       -114.5075266950452573
  Basis Set: AUG-CC-PV(T+D)Z
    Blend: AUG-CC-PV(T+D)Z
  Basis Set: (AUG-CC-PV(T+D)Z AUX)
    Blend: AUG-CC-PVTZ-JKFIT
  @DF-RKS Final Energy:  -114.50752041122743
    Total Energy =                       -114.5075204112274321
  @DF-RKS Final Energy:  -114.50749750899561
    Total Energy =                       -114.5074975089956126
  @DF-RKS Final Energy:  -114.50749264503827
    Total Energy =                       -114.5074926450382691
  @DF-RKS Final Energy:  -114.50752257069796
    Total Energy =                       -114.5075225706979580
  @DF-RKS Final Energy:  -114.50757945439813
    Total Energy =                       -114.5075794543981260
  @DF-RKS Final Energy:  -114.50757526831232
    Total Energy =                       -114.5075752683123227
  @DF-RKS Final Energy:  -114.50758061876967
    Total Energy =                       -114.5075806187696656
  @DF-RKS Final Energy:  -114.50758133077842
    Total Energy =                       -114.5075813307784216
  @DF-RKS Final Energy:  -114.50757359906892
    Total Energy =                       -114.5075735990689338
  @DF-RKS Final Energy:  -114.50757485867086
    Total Energy =                       -114.5075748586708784
  @DF-RKS Final Energy:  -114.50757745273360
    Total Energy =                       -114.5075774527335994
  @DF-RKS Final Energy:  -114.50758223738406
    Total Energy =                       -114.5075822373840424
  @DF-RKS Final Energy:  -114.50758066505495
    Total Energy =                       -114.5075806650549453
  @DF-RKS Final Energy:  -114.50758077657683
    Total Energy =                       -114.5075807765768303
  @DF-RKS Final Energy:  -114.50758095101052
    Total Energy =                       -114.5075809510105387
  @DF-RKS Final Energy:  -114.50757955230489
    Total Energy =                       -114.5075795523048896
  @DF-RKS Final Energy:  -114.50757918984537
    Total Energy =                       -114.5075791898453730
  **** Optimization is complete! (in 3 steps) ****
    Final optimized geometry and variables:
  @DF-RKS Final Energy:  -114.50757918984515
    Total Energy =                       -114.5075791898451598
  @DF-RKS Final Energy:  -114.50757871925342
    Total Energy =                       -114.5075787192534165
  @DF-RKS Final Energy:  -114.50758223738404
    Total Energy =                       -114.5075822373840282
  @DF-RKS Final Energy:  -114.50758066505504
    Total Energy =                       -114.5075806650550447
  @DF-RKS Final Energy:  -114.50758077657675
    Total Energy =                       -114.5075807765767593
  @DF-RKS Final Energy:  -114.50758095101055
    Total Energy =                       -114.5075809510105529
  @DF-RKS Final Energy:  -114.50757955230499
    Total Energy =                       -114.5075795523049891
  @DF-RKS Final Energy:  -114.50757918984543
    Total Energy =                       -114.5075791898454298
  @DF-RKS Final Energy:  -114.50757871925380
    Total Energy =                       -114.5075787192538144
  @DF-RKS Final Energy:  -114.50757841201600
    Total Energy =                       -114.5075784120160023
  @DF-RKS Final Energy:  -114.50757969418629
    Total Energy =                       -114.5075796941862905
  @DF-RKS Final Energy:  -114.50757747467242
    Total Energy =                       -114.5075774746724164
  @DF-RKS Final Energy:  -114.50757783329192
    Total Energy =                       -114.5075778332919185
  @DF-RKS Final Energy:  -114.50757858375066
    Total Energy =                       -114.5075785837506572
  @DF-RKS Final Energy:  -114.50758046657374
    Total Energy =                       -114.5075804665737422
  @DF-RKS Final Energy:  -114.50758147925019
    Total Energy =                       -114.5075814792501916
  Basis Set: AUG-CC-PV(T+D)Z
    Blend: AUG-CC-PV(T+D)Z
  Basis Set: (AUG-CC-PV(T+D)Z AUX)
    Blend: AUG-CC-PVTZ-JKFIT
  @DF-RKS Final Energy:  -114.50757799206055
    Total Energy =                       -114.5075779920605470
  Basis Set: AUG-CC-PV(T+D)Z
    Blend: AUG-CC-PV(T+D)Z
  Basis Set: (AUG-CC-PV(T+D)Z AUX)
    Blend: AUG-CC-PVTZ-JKFIT
  @DF-RKS Final Energy:  -114.50757727321184
    Total Energy =                       -114.5075772732118367
  Multiplicity = 1
  Basis Set: AUG-CC-PV(T+D)Z
    Blend: AUG-CC-PV(T+D)Z
  Basis Set: (AUG-CC-PV(T+D)Z AUX)
    Blend: AUG-CC-PVTZ-JKFIT
  @DF-RKS Final Energy:  -114.50757727441975
    Total Energy =                       -114.5075772744197451
    Molecular point group: cs

    Geometry (in Angstrom), charge = 0, multiplicity = 1:

       Center              X                  Y                   Z               Mass
    ------------   -----------------  -----------------  -----------------  -----------------
         O            0.000000000000    -0.000096240465    -0.599870270983    15.994914619570
         C            0.000000000000     0.000392848110     0.600855685588    12.000000000000
         H            0.940945292540    -0.001575084556     1.183045401673     1.007825032230
         H           -0.940945292540    -0.001575084556     1.183045401673     1.007825032230

  Charge       = 0
  Multiplicity = 1
  Basis Set: AUG-CC-PV(T+D)Z
    Blend: AUG-CC-PV(T+D)Z
  Basis Set: (AUG-CC-PV(T+D)Z AUX)
    Blend: AUG-CC-PVTZ-JKFIT

    Orbital Energies [Eh]
    ---------------------

    Doubly Occupied:

       1Ap   -19.237653     2Ap   -10.373565     3Ap    -1.198311
       4Ap    -0.762794     1App   -0.617774     5Ap    -0.569192
       6Ap    -0.515664     2App   -0.380221

  @DF-RKS Final Energy:  -114.50758154747125

   => Energetics <=

    Nuclear Repulsion Energy =             31.3743145715691725
    One-Electron Energy =                -217.5964062049775407
    Two-Electron Energy =                  81.9270625160210813
    DFT Exchange-Correlation Energy =     -10.2790567098152188
    Empirical Dispersion Energy =           0.0000000000000000
    VV10 Nonlocal Energy =                  0.0665042797312536
    Total Energy =                       -114.5075815474712471

  Dipole Moment: [D]
     X:     0.0000      Y:    -0.0010      Z:     2.4580     Total:     2.4580

  Vibration                       7                   8                   9
  Freq [cm^-1]                1207.6647           1265.8713           1531.9971
  Irrep                           B2                  B1                  A1
  Reduced mass [u]              1.3659              1.3428              1.0953
  Force const [mDyne/A]         1.1737              1.2678              1.5147

  Vibration                       10                  11                  12
  Freq [cm^-1]                1843.2957           2932.3703           2995.7840
  Irrep                           A1                  A1                  B1
  Reduced mass [u]              7.8887              1.0446              1.1207
  Force const [mDyne/A]        15.7923              5.2921              5.9262

  ==> Thermochemistry Components <==

  Entropy, S
    Electronic S            0.000 [cal/(mol K)]        0.000 [J/(mol K)]       0.00000000 [mEh/K] (multiplicity = 1)
    Translational S        36.130 [cal/(mol K)]      151.169 [J/(mol K)]       0.05757719 [mEh/K] (mol. weight = 30.0106 [u], P = 101325.00 [Pa])
    Rotational S           16.007 [cal/(mol K)]       66.973 [J/(mol K)]       0.02550864 [mEh/K] (symmetry no. = 2)
    Vibrational S           0.085 [cal/(mol K)]        0.354 [J/(mol K)]       0.00013473 [mEh/K]
  Total S                  52.222 [cal/(mol K)]      218.496 [J/(mol K)]       0.08322056 [mEh/K]
  Correction S              0.000 [cal/(mol K)]        0.000 [J/(mol K)]       0.00000000 [mEh/K]

  Constant volume heat capacity, Cv
    Electronic Cv           0.000 [cal/(mol K)]        0.000 [J/(mol K)]       0.00000000 [mEh/K]
    Translational Cv        2.981 [cal/(mol K)]       12.472 [J/(mol K)]       0.00475022 [mEh/K]
    Rotational Cv           2.981 [cal/(mol K)]       12.472 [J/(mol K)]       0.00475022 [mEh/K]
    Vibrational Cv          0.455 [cal/(mol K)]        1.902 [J/(mol K)]       0.00072433 [mEh/K]
  Total Cv                  6.416 [cal/(mol K)]       26.845 [J/(mol K)]       0.01022476 [mEh/K]
  Correction Cv             0.000 [cal/(mol K)]        0.000 [J/(mol K)]       0.00000000 [mEh/K]

  Constant pressure heat capacity, Cp
    Electronic Cp           0.000 [cal/(mol K)]        0.000 [J/(mol K)]       0.00000000 [mEh/K]
    Translational Cp        4.968 [cal/(mol K)]       20.786 [J/(mol K)]       0.00791703 [mEh/K]
    Rotational Cp           2.981 [cal/(mol K)]       12.472 [J/(mol K)]       0.00475022 [mEh/K]
    Vibrational Cp          0.455 [cal/(mol K)]        1.902 [J/(mol K)]       0.00072433 [mEh/K]
  Total Cp                  8.403 [cal/(mol K)]       35.160 [J/(mol K)]       0.01339157 [mEh/K]
  Correction Cp             0.000 [cal/(mol K)]        0.000 [J/(mol K)]       0.00000000 [mEh/K]

  ==> Thermochemistry Energy Analysis <==

  Raw electronic energy, E0
  Total E0, Electronic energy at well bottom at 0 [K]                 -114.50758224 [Eh]

  Zero-point energy, ZPE_vib = Sum_i nu_i / 2
    Electronic ZPE          0.000 [kcal/mol]        0.000 [kJ/mol]       0.00000000 [Eh]
    Translational ZPE       0.000 [kcal/mol]        0.000 [kJ/mol]       0.00000000 [Eh]
    Rotational ZPE          0.000 [kcal/mol]        0.000 [kJ/mol]       0.00000000 [Eh]
    Vibrational ZPE        16.836 [kcal/mol]       70.442 [kJ/mol]       0.02682994 [Eh]        5888.491 [cm^-1]
  Correction ZPE           16.836 [kcal/mol]       70.442 [kJ/mol]       0.02682994 [Eh]        5888.491 [cm^-1]
  Total ZPE, Electronic energy at 0 [K]                               -114.48075230 [Eh]

  Thermal Energy, E (includes ZPE)
    Electronic E            0.000 [kcal/mol]        0.000 [kJ/mol]       0.00000000 [Eh]
    Translational E         0.889 [kcal/mol]        3.718 [kJ/mol]       0.00141628 [Eh]
    Rotational E            0.889 [kcal/mol]        3.718 [kJ/mol]       0.00141628 [Eh]
    Vibrational E          16.858 [kcal/mol]       70.533 [kJ/mol]       0.02686451 [Eh]
  Correction E             18.635 [kcal/mol]       77.970 [kJ/mol]       0.02969707 [Eh]
  Total E, Electronic energy at  298.15 [K]                           -114.47788517 [Eh]

  Enthalpy, H_trans = E_trans + k_B * T
    Electronic H            0.000 [kcal/mol]        0.000 [kJ/mol]       0.00000000 [Eh]
    Translational H         1.481 [kcal/mol]        6.197 [kJ/mol]       0.00236046 [Eh]
    Rotational H            0.889 [kcal/mol]        3.718 [kJ/mol]       0.00141628 [Eh]
    Vibrational H          16.858 [kcal/mol]       70.533 [kJ/mol]       0.02686451 [Eh]
  Correction H             19.228 [kcal/mol]       80.449 [kJ/mol]       0.03064125 [Eh]
  Total H, Enthalpy at  298.15 [K]                                    -114.47694099 [Eh]

  Gibbs free energy, G = H - T * S
    Electronic G            0.000 [kcal/mol]        0.000 [kJ/mol]       0.00000000 [Eh]
    Translational G        -9.291 [kcal/mol]      -38.874 [kJ/mol]      -0.01480618 [Eh]
    Rotational G           -3.884 [kcal/mol]      -16.250 [kJ/mol]      -0.00618912 [Eh]
    Vibrational G          16.833 [kcal/mol]       70.427 [kJ/mol]       0.02682434 [Eh]
  Correction G              3.658 [kcal/mol]       15.304 [kJ/mol]       0.00582904 [Eh]
  Total G, Free enthalpy at  298.15 [K]                               -114.50175320 [Eh]

*** Psi4 exiting successfully. Buy a developer a beer!
