                               Psi4 1.3.2 release

  ==> Input File <==

--------------------------------------------------------------------------
memory 144 GB

molecule {
0 1
S 0.0000000000 0.0000000000 0.0000000000
C 0.0000000000 0.0000000000 1.2066000000
H 0.9369544103 0.0000000000 1.7870836544
H -0.9369544103 0.0000000000 1.7870836544
}

set dynamic_level 1
set basis aug-cc-pV(T+d)Z

optimize("wB97X-V")
frequencies("wB97X-V")
--------------------------------------------------------------------------

    Molecular point group: c2v
  Charge       = 0
  Multiplicity = 1
  Basis Set: AUG-CC-PV(T+D)Z
    Blend: AUG-CC-PV(T+D)Z
  Basis Set: (AUG-CC-PV(T+D)Z AUX)
    Blend: AUG-CC-PVTZ-JKFIT
  @DF-RKS Final Energy:  -437.14428545887449
    Total Energy =                       -437.1442854588744922
    Molecular point group: c2v
  Basis Set: AUG-CC-PV(T+D)Z
    Blend: AUG-CC-PV(T+D)Z
  Basis Set: (AUG-CC-PV(T+D)Z AUX)
    Blend: AUG-CC-PVTZ-JKFIT
  @DF-RKS Final Energy:  -437.14595389911199
    Total Energy =                       -437.1459538991119302
  Basis Set: AUG-CC-PV(T+D)Z
    Blend: AUG-CC-PV(T+D)Z
  Basis Set: (AUG-CC-PV(T+D)Z AUX)
    Blend: AUG-CC-PVTZ-JKFIT
  @DF-RKS Final Energy:  -437.14260915154091
    Total Energy =                       -437.1426091515409098
  Basis Set: AUG-CC-PV(T+D)Z
    Blend: AUG-CC-PV(T+D)Z
  Basis Set: (AUG-CC-PV(T+D)Z AUX)
    Blend: AUG-CC-PVTZ-JKFIT
  @DF-RKS Final Energy:  -437.14388052188337
    Total Energy =                       -437.1438805218834318
  @DF-RKS Final Energy:  -437.14468562613507
    Total Energy =                       -437.1446856261350717
  @DF-RKS Final Energy:  -437.14432783666757
    Total Energy =                       -437.1443278366675713
  @DF-RKS Final Energy:  -437.14423694809511
    Total Energy =                       -437.1442369480950561
  @DF-RKS Final Energy:  -437.32612882672305
    Total Energy =                       -437.3261288267230498
  @DF-RKS Final Energy:  -437.32688239462152
    Total Energy =                       -437.3268823946215775
  @DF-RKS Final Energy:  -437.32537098128176
    Total Energy =                       -437.3253709812817078
  @DF-RKS Final Energy:  -437.32589983390352
    Total Energy =                       -437.3258998339034633
  @DF-RKS Final Energy:  -437.32635339704160
    Total Energy =                       -437.3263533970415438
  @DF-RKS Final Energy:  -437.32616787515815
    Total Energy =                       -437.3261678751582053
  @DF-RKS Final Energy:  -437.32608362343632
    Total Energy =                       -437.3260836234363182
  @DF-RKS Final Energy:  -437.39139459940571
    Total Energy =                       -437.3913945994056576
  @DF-RKS Final Energy:  -437.39173144980884
    Total Energy =                       -437.3917314498088444
  @DF-RKS Final Energy:  -437.39105511058625
    Total Energy =                       -437.3910551105862510
  @DF-RKS Final Energy:  -437.39127421969380
    Total Energy =                       -437.3912742196937984
  @DF-RKS Final Energy:  -437.39151060783837
    Total Energy =                       -437.3915106078383701
  @DF-RKS Final Energy:  -437.39140153728812
    Total Energy =                       -437.3914015372881181
  **** Optimization is complete! (in 9 steps) ****
    Final optimized geometry and variables:
  @DF-RKS Final Energy:  -437.41876481062633
    Total Energy =                       -437.4187648106262714
  @DF-RKS Final Energy:  -437.41876479722345
    Total Energy =                       -437.4187647972233890
  @DF-RKS Final Energy:  -437.41876836355272
    Total Energy =                       -437.4187683635526582
  @DF-RKS Final Energy:  -437.41876776044063
    Total Energy =                       -437.4187677604406304
  @DF-RKS Final Energy:  -437.41876771085572
    Total Energy =                       -437.4187677108557182
  @DF-RKS Final Energy:  -437.41876634300235
    Total Energy =                       -437.4187663430023463
  @DF-RKS Final Energy:  -437.41876627384659
    Total Energy =                       -437.4187662738465860
  @DF-RKS Final Energy:  -437.41876481062633
    Total Energy =                       -437.4187648106263282
  @DF-RKS Final Energy:  -437.41876479722362
    Total Energy =                       -437.4187647972235595
  @DF-RKS Final Energy:  -437.41876578677864
    Total Energy =                       -437.4187657867786356
  @DF-RKS Final Energy:  -437.41876591446146
    Total Energy =                       -437.4187659144615168
  @DF-RKS Final Energy:  -437.41876412299791
    Total Energy =                       -437.4187641229979704
  @DF-RKS Final Energy:  -437.41876419331760
    Total Energy =                       -437.4187641933176565
  @DF-RKS Final Energy:  -437.41876583350768
    Total Energy =                       -437.4187658335076776
  @DF-RKS Final Energy:  -437.41876593917203
    Total Energy =                       -437.4187659391720331
  @DF-RKS Final Energy:  -437.41876787570391
    Total Energy =                       -437.4187678757038498
  Basis Set: AUG-CC-PV(T+D)Z
    Blend: AUG-CC-PV(T+D)Z
  Basis Set: (AUG-CC-PV(T+D)Z AUX)
    Blend: AUG-CC-PVTZ-JKFIT
  @DF-RKS Final Energy:  -437.41876357143923
    Total Energy =                       -437.4187635714392286
  Basis Set: AUG-CC-PV(T+D)Z
    Blend: AUG-CC-PV(T+D)Z
  Basis Set: (AUG-CC-PV(T+D)Z AUX)
    Blend: AUG-CC-PVTZ-JKFIT
  @DF-RKS Final Energy:  -437.41876312524715
    Total Energy =                       -437.4187631252470965
  Multiplicity = 1
  Basis Set: AUG-CC-PV(T+D)Z
    Blend: AUG-CC-PV(T+D)Z
  Basis Set: (AUG-CC-PV(T+D)Z AUX)
    Blend: AUG-CC-PVTZ-JKFIT
  @DF-RKS Final Energy:  -437.41876312653523
    Total Energy =                       -437.4187631265352820
    Molecular point group: cs

    Geometry (in Angstrom), charge = 0, multiplicity = 1:

       Center              X                  Y                   Z               Mass
    ------------   -----------------  -----------------  -----------------  -----------------
         S            0.000000000000    -0.000036967251    -0.512314156085    31.972071174400
         C            0.000000000000     0.000371002697     1.085616658703    12.000000000000
         H            0.923701296953    -0.001622361369     1.663158112949     1.007825032230
         H           -0.923701296953    -0.001622361369     1.663158112949     1.007825032230

  Charge       = 0
  Multiplicity = 1
  Basis Set: AUG-CC-PV(T+D)Z
    Blend: AUG-CC-PV(T+D)Z
  Basis Set: (AUG-CC-PV(T+D)Z AUX)
    Blend: AUG-CC-PVTZ-JKFIT

    Orbital Energies [Eh]
    ---------------------

    Doubly Occupied:

       1Ap   -88.889512     2Ap   -10.348204     3Ap    -8.047044
       4Ap    -6.004093     5Ap    -6.001376     1App   -5.993416
       6Ap    -0.936457     7Ap    -0.724852     2App   -0.581779
       8Ap    -0.504487     9Ap    -0.424546     3App   -0.334860

  @DF-RKS Final Energy:  -437.41876783248540

   => Energetics <=

    Nuclear Repulsion Energy =             45.0720312810881296
    One-Electron Energy =                -691.4716584702651971
    Two-Electron Energy =                 232.3881176024745798
    DFT Exchange-Correlation Energy =     -23.5065103353687377
    Empirical Dispersion Energy =           0.0000000000000000
    VV10 Nonlocal Energy =                  0.0992520895858334
    Total Energy =                       -437.4187678324853437

  Dipole Moment: [D]
     X:     0.0000      Y:    -0.0026      Z:     1.8108     Total:     1.8108

  Vibration                       7                   8                   9
  Freq [cm^-1]                1015.4198           1059.5563           1142.2175
  Irrep                           B1                  B2                  A1
  Reduced mass [u]              1.2077              1.2957              4.1017
  Force const [mDyne/A]         0.7337              0.8570              3.1529

  Vibration                       10                  11                  12
  Freq [cm^-1]                1509.3098           3100.6631           3182.8599
  Irrep                           A1                  A1                  B1
  Reduced mass [u]              1.2238              1.0514              1.1196
  Force const [mDyne/A]         1.6425              5.9555              6.6829

  ==> Thermochemistry Components <==

  Entropy, S
    Electronic S            0.000 [cal/(mol K)]        0.000 [J/(mol K)]       0.00000000 [mEh/K] (multiplicity = 1)
    Translational S        37.403 [cal/(mol K)]      156.492 [J/(mol K)]       0.05960470 [mEh/K] (mol. weight = 45.9877 [u], P = 101325.00 [Pa])
    Rotational S           17.447 [cal/(mol K)]       72.998 [J/(mol K)]       0.02780343 [mEh/K] (symmetry no. = 2)
    Vibrational S           0.225 [cal/(mol K)]        0.942 [J/(mol K)]       0.00035886 [mEh/K]
  Total S                  55.075 [cal/(mol K)]      230.432 [J/(mol K)]       0.08776699 [mEh/K]
  Correction S              0.000 [cal/(mol K)]        0.000 [J/(mol K)]       0.00000000 [mEh/K]

  Constant volume heat capacity, Cv
    Electronic Cv           0.000 [cal/(mol K)]        0.000 [J/(mol K)]       0.00000000 [mEh/K]
    Translational Cv        2.981 [cal/(mol K)]       12.472 [J/(mol K)]       0.00475022 [mEh/K]
    Rotational Cv           2.981 [cal/(mol K)]       12.472 [J/(mol K)]       0.00475022 [mEh/K]
    Vibrational Cv          0.996 [cal/(mol K)]        4.165 [J/(mol K)]       0.00158655 [mEh/K]
  Total Cv                  6.957 [cal/(mol K)]       29.109 [J/(mol K)]       0.01108698 [mEh/K]
  Correction Cv             0.000 [cal/(mol K)]        0.000 [J/(mol K)]       0.00000000 [mEh/K]

  Constant pressure heat capacity, Cp
    Electronic Cp           0.000 [cal/(mol K)]        0.000 [J/(mol K)]       0.00000000 [mEh/K]
    Translational Cp        4.968 [cal/(mol K)]       20.786 [J/(mol K)]       0.00791703 [mEh/K]
    Rotational Cp           2.981 [cal/(mol K)]       12.472 [J/(mol K)]       0.00475022 [mEh/K]
    Vibrational Cp          0.996 [cal/(mol K)]        4.165 [J/(mol K)]       0.00158655 [mEh/K]
  Total Cp                  8.944 [cal/(mol K)]       37.423 [J/(mol K)]       0.01425379 [mEh/K]
  Correction Cp             0.000 [cal/(mol K)]        0.000 [J/(mol K)]       0.00000000 [mEh/K]

  ==> Thermochemistry Energy Analysis <==

  Raw electronic energy, E0
  Total E0, Electronic energy at well bottom at 0 [K]                 -437.41876836 [Eh]

  Zero-point energy, ZPE_vib = Sum_i nu_i / 2
    Electronic ZPE          0.000 [kcal/mol]        0.000 [kJ/mol]       0.00000000 [Eh]
    Translational ZPE       0.000 [kcal/mol]        0.000 [kJ/mol]       0.00000000 [Eh]
    Rotational ZPE          0.000 [kcal/mol]        0.000 [kJ/mol]       0.00000000 [Eh]
    Vibrational ZPE        15.740 [kcal/mol]       65.855 [kJ/mol]       0.02508269 [Eh]        5505.013 [cm^-1]
  Correction ZPE           15.740 [kcal/mol]       65.855 [kJ/mol]       0.02508269 [Eh]        5505.013 [cm^-1]
  Total ZPE, Electronic energy at 0 [K]                               -437.39368568 [Eh]

  Thermal Energy, E (includes ZPE)
    Electronic E            0.000 [kcal/mol]        0.000 [kJ/mol]       0.00000000 [Eh]
    Translational E         0.889 [kcal/mol]        3.718 [kJ/mol]       0.00141628 [Eh]
    Rotational E            0.889 [kcal/mol]        3.718 [kJ/mol]       0.00141628 [Eh]
    Vibrational E          15.796 [kcal/mol]       66.090 [kJ/mol]       0.02517245 [Eh]
  Correction E             17.573 [kcal/mol]       73.527 [kJ/mol]       0.02800501 [Eh]
  Total E, Electronic energy at  298.15 [K]                           -437.39076336 [Eh]

  Enthalpy, H_trans = E_trans + k_B * T
    Electronic H            0.000 [kcal/mol]        0.000 [kJ/mol]       0.00000000 [Eh]
    Translational H         1.481 [kcal/mol]        6.197 [kJ/mol]       0.00236046 [Eh]
    Rotational H            0.889 [kcal/mol]        3.718 [kJ/mol]       0.00141628 [Eh]
    Vibrational H          15.796 [kcal/mol]       66.090 [kJ/mol]       0.02517245 [Eh]
  Correction H             18.166 [kcal/mol]       76.006 [kJ/mol]       0.02894919 [Eh]
  Total H, Enthalpy at  298.15 [K]                                    -437.38981917 [Eh]

  Gibbs free energy, G = H - T * S
    Electronic G            0.000 [kcal/mol]        0.000 [kJ/mol]       0.00000000 [Eh]
    Translational G        -9.670 [kcal/mol]      -40.461 [kJ/mol]      -0.01541068 [Eh]
    Rotational G           -4.313 [kcal/mol]      -18.046 [kJ/mol]      -0.00687332 [Eh]
    Vibrational G          15.729 [kcal/mol]       65.809 [kJ/mol]       0.02506546 [Eh]
  Correction G              1.745 [kcal/mol]        7.303 [kJ/mol]       0.00278146 [Eh]
  Total G, Free enthalpy at  298.15 [K]                               -437.41598690 [Eh]

*** Psi4 exiting successfully. Buy a developer a beer!
