                               Psi4 1.3.2 release

  ==> Input File <==

--------------------------------------------------------------------------
memory 144 GB

molecule {
0 1
O 0.0000000000 0.0000000000 0.0000000000
H 0.0000000000 0.0000000000 0.9579000000
H 0.9289588892 0.0000000000 -0.2336831018
}

set dynamic_level 1
set basis aug-cc-pV(T+d)Z

optimize("wB97X-V")
frequencies("wB97X-V")
--------------------------------------------------------------------------

    Molecular point group: c2v
  Charge       = 0
  Multiplicity = 1
  Basis Set: AUG-CC-PV(T+D)Z
    Blend: AUG-CC-PV(T+D)Z
  Basis Set: (AUG-CC-PV(T+D)Z AUX)
    Blend: AUG-CC-PVTZ-JKFIT
  @DF-RKS Final Energy:   -76.43359860907900
    Total Energy =                        -76.4335986090789987
    Molecular point group: c2v
  Basis Set: AUG-CC-PV(T+D)Z
    Blend: AUG-CC-PV(T+D)Z
  Basis Set: (AUG-CC-PV(T+D)Z AUX)
    Blend: AUG-CC-PVTZ-JKFIT
  @DF-RKS Final Energy:   -76.43360091560780
    Total Energy =                        -76.4336009156077836
  Basis Set: AUG-CC-PV(T+D)Z
    Blend: AUG-CC-PV(T+D)Z
  Basis Set: (AUG-CC-PV(T+D)Z AUX)
    Blend: AUG-CC-PVTZ-JKFIT
  @DF-RKS Final Energy:   -76.43358973317339
    Total Energy =                        -76.4335897331733776
  Basis Set: AUG-CC-PV(T+D)Z
    Blend: AUG-CC-PV(T+D)Z
  Basis Set: (AUG-CC-PV(T+D)Z AUX)
    Blend: AUG-CC-PVTZ-JKFIT
  @DF-RKS Final Energy:   -76.43356912738845
    Total Energy =                        -76.4335691273884379
  @DF-RKS Final Energy:   -76.43361782248940
    Total Energy =                        -76.4336178224893956
  @DF-RKS Final Energy:   -76.43363512090654
    Total Energy =                        -76.4336351209065441
  @DF-RKS Final Energy:   -76.43363098595235
    Total Energy =                        -76.4336309859523482
  @DF-RKS Final Energy:   -76.43363287068340
    Total Energy =                        -76.4336328706834109
  @DF-RKS Final Energy:   -76.43363339770509
    Total Energy =                        -76.4336333977050941
  @DF-RKS Final Energy:   -76.43362672451497
    Total Energy =                        -76.4336267245149799
  @DF-RKS Final Energy:   -76.43363577783984
    Total Energy =                        -76.4336357778398394
  @DF-RKS Final Energy:   -76.43363253324878
    Total Energy =                        -76.4336325332487831
  @DF-RKS Final Energy:   -76.43363261764006
    Total Energy =                        -76.4336326176400433
  @DF-RKS Final Energy:   -76.43363076166465
    Total Energy =                        -76.4336307616646451
  @DF-RKS Final Energy:   -76.43363065823887
    Total Energy =                        -76.4336306582388403
  **** Optimization is complete! (in 3 steps) ****
    Final optimized geometry and variables:
  @DF-RKS Final Energy:   -76.43363577784002
    Total Energy =                        -76.4336357778400242
  @DF-RKS Final Energy:   -76.43363253324890
    Total Energy =                        -76.4336325332489110
  @DF-RKS Final Energy:   -76.43363261764014
    Total Energy =                        -76.4336326176401286
  @DF-RKS Final Energy:   -76.43363076166456
    Total Energy =                        -76.4336307616645598
  @DF-RKS Final Energy:   -76.43363065823881
    Total Energy =                        -76.4336306582388119
  @DF-RKS Final Energy:   -76.43363577783998
    Total Energy =                        -76.4336357778399957
  @DF-RKS Final Energy:   -76.43363253324887
    Total Energy =                        -76.4336325332488400
  @DF-RKS Final Energy:   -76.43363261764001
    Total Energy =                        -76.4336326176400149
  @DF-RKS Final Energy:   -76.43363076166460
    Total Energy =                        -76.4336307616645882
  Basis Set: AUG-CC-PV(T+D)Z
    Blend: AUG-CC-PV(T+D)Z
  Basis Set: (AUG-CC-PV(T+D)Z AUX)
    Blend: AUG-CC-PVTZ-JKFIT
  @DF-RKS Final Energy:   -76.43363065823878
    Total Energy =                        -76.4336306582387834
  Basis Set: AUG-CC-PV(T+D)Z
    Blend: AUG-CC-PV(T+D)Z
  Basis Set: (AUG-CC-PV(T+D)Z AUX)
    Blend: AUG-CC-PVTZ-JKFIT
  @DF-RKS Final Energy:   -76.43363292418378
    Total Energy =                        -76.4336329241837831
  Multiplicity = 1
  Basis Set: AUG-CC-PV(T+D)Z
    Blend: AUG-CC-PV(T+D)Z
  Basis Set: (AUG-CC-PV(T+D)Z AUX)
    Blend: AUG-CC-PVTZ-JKFIT
  @DF-RKS Final Energy:   -76.43363296436914
    Total Energy =                        -76.4336329643691101
    Molecular point group: cs

    Geometry (in Angstrom), charge = 0, multiplicity = 1:

       Center              X                  Y                   Z               Mass
    ------------   -----------------  -----------------  -----------------  -----------------
         O            0.000000000000    -0.000179352442    -0.065435698862    15.994914619570
         H            0.000000000000     0.763502224690     0.520347958811     1.007825032230
         H            0.000000000000    -0.760655771283     0.518164067483     1.007825032230

  Charge       = 0
  Multiplicity = 1
  Basis Set: AUG-CC-PV(T+D)Z
    Blend: AUG-CC-PV(T+D)Z
  Basis Set: (AUG-CC-PV(T+D)Z AUX)
    Blend: AUG-CC-PVTZ-JKFIT

    Orbital Energies [Eh]
    ---------------------

    Doubly Occupied:

       1Ap   -19.223016     2Ap    -1.145539     3Ap    -0.647430
       4Ap    -0.505589     1App   -0.430160

  @DF-RKS Final Energy:   -76.43362839404297

   => Energetics <=

    Nuclear Repulsion Energy =              9.1619300999038096
    One-Electron Energy =                -122.9445697502444119
    Two-Electron Energy =                  43.8338598447293677
    DFT Exchange-Correlation Energy =      -6.5274197506804361
    Empirical Dispersion Energy =           0.0000000000000000
    VV10 Nonlocal Energy =                  0.0425711622487043
    Total Energy =                        -76.4336283940429553

  Dipole Moment: [D]
     X:     0.0000      Y:     0.0033      Z:     1.8671     Total:     1.8671

  Vibration                       7                   8                   9
  Freq [cm^-1]                1632.8361           3849.2814           3950.8373
  Irrep                           A1                  A1                  B2
  Reduced mass [u]              1.0830              1.0448              1.0824
  Force const [mDyne/A]         1.7013              9.1212              9.9541

  ==> Thermochemistry Components <==

  Entropy, S
    Electronic S            0.000 [cal/(mol K)]        0.000 [J/(mol K)]       0.00000000 [mEh/K] (multiplicity = 1)
    Translational S        34.608 [cal/(mol K)]      144.801 [J/(mol K)]       0.05515177 [mEh/K] (mol. weight = 18.0106 [u], P = 101325.00 [Pa])
    Rotational S           10.463 [cal/(mol K)]       43.775 [J/(mol K)]       0.01667316 [mEh/K] (symmetry no. = 2)
    Vibrational S           0.007 [cal/(mol K)]        0.028 [J/(mol K)]       0.00001065 [mEh/K]
  Total S                  45.078 [cal/(mol K)]      188.604 [J/(mol K)]       0.07183558 [mEh/K]
  Correction S              0.000 [cal/(mol K)]        0.000 [J/(mol K)]       0.00000000 [mEh/K]

  Constant volume heat capacity, Cv
    Electronic Cv           0.000 [cal/(mol K)]        0.000 [J/(mol K)]       0.00000000 [mEh/K]
    Translational Cv        2.981 [cal/(mol K)]       12.472 [J/(mol K)]       0.00475022 [mEh/K]
    Rotational Cv           2.981 [cal/(mol K)]       12.472 [J/(mol K)]       0.00475022 [mEh/K]
    Vibrational Cv          0.047 [cal/(mol K)]        0.196 [J/(mol K)]       0.00007447 [mEh/K]
  Total Cv                  6.008 [cal/(mol K)]       25.139 [J/(mol K)]       0.00957490 [mEh/K]
  Correction Cv             0.000 [cal/(mol K)]        0.000 [J/(mol K)]       0.00000000 [mEh/K]

  Constant pressure heat capacity, Cp
    Electronic Cp           0.000 [cal/(mol K)]        0.000 [J/(mol K)]       0.00000000 [mEh/K]
    Translational Cp        4.968 [cal/(mol K)]       20.786 [J/(mol K)]       0.00791703 [mEh/K]
    Rotational Cp           2.981 [cal/(mol K)]       12.472 [J/(mol K)]       0.00475022 [mEh/K]
    Vibrational Cp          0.047 [cal/(mol K)]        0.196 [J/(mol K)]       0.00007447 [mEh/K]
  Total Cp                  7.996 [cal/(mol K)]       33.453 [J/(mol K)]       0.01274171 [mEh/K]
  Correction Cp             0.000 [cal/(mol K)]        0.000 [J/(mol K)]       0.00000000 [mEh/K]

  ==> Thermochemistry Energy Analysis <==

  Raw electronic energy, E0
  Total E0, Electronic energy at well bottom at 0 [K]                  -76.43363578 [Eh]

  Zero-point energy, ZPE_vib = Sum_i nu_i / 2
    Electronic ZPE          0.000 [kcal/mol]        0.000 [kJ/mol]       0.00000000 [Eh]
    Translational ZPE       0.000 [kcal/mol]        0.000 [kJ/mol]       0.00000000 [Eh]
    Rotational ZPE          0.000 [kcal/mol]        0.000 [kJ/mol]       0.00000000 [Eh]
    Vibrational ZPE        13.485 [kcal/mol]       56.422 [kJ/mol]       0.02148985 [Eh]        4716.477 [cm^-1]
  Correction ZPE           13.485 [kcal/mol]       56.422 [kJ/mol]       0.02148985 [Eh]        4716.477 [cm^-1]
  Total ZPE, Electronic energy at 0 [K]                                -76.41214593 [Eh]

  Thermal Energy, E (includes ZPE)
    Electronic E            0.000 [kcal/mol]        0.000 [kJ/mol]       0.00000000 [Eh]
    Translational E         0.889 [kcal/mol]        3.718 [kJ/mol]       0.00141628 [Eh]
    Rotational E            0.889 [kcal/mol]        3.718 [kJ/mol]       0.00141628 [Eh]
    Vibrational E          13.487 [kcal/mol]       56.429 [kJ/mol]       0.02149267 [Eh]
  Correction E             15.264 [kcal/mol]       63.866 [kJ/mol]       0.02432522 [Eh]
  Total E, Electronic energy at  298.15 [K]                            -76.40931056 [Eh]

  Enthalpy, H_trans = E_trans + k_B * T
    Electronic H            0.000 [kcal/mol]        0.000 [kJ/mol]       0.00000000 [Eh]
    Translational H         1.481 [kcal/mol]        6.197 [kJ/mol]       0.00236046 [Eh]
    Rotational H            0.889 [kcal/mol]        3.718 [kJ/mol]       0.00141628 [Eh]
    Vibrational H          13.487 [kcal/mol]       56.429 [kJ/mol]       0.02149267 [Eh]
  Correction H             15.857 [kcal/mol]       66.345 [kJ/mol]       0.02526941 [Eh]
  Total H, Enthalpy at  298.15 [K]                                     -76.40836637 [Eh]

  Gibbs free energy, G = H - T * S
    Electronic G            0.000 [kcal/mol]        0.000 [kJ/mol]       0.00000000 [Eh]
    Translational G        -8.837 [kcal/mol]      -36.975 [kJ/mol]      -0.01408304 [Eh]
    Rotational G           -2.231 [kcal/mol]       -9.333 [kJ/mol]      -0.00355483 [Eh]
    Vibrational G          13.485 [kcal/mol]       56.421 [kJ/mol]       0.02148949 [Eh]
  Correction G              2.417 [kcal/mol]       10.112 [kJ/mol]       0.00385163 [Eh]
  Total G, Free enthalpy at  298.15 [K]                                -76.42978415 [Eh]

*** Psi4 exiting successfully. Buy a developer a beer!
