                               Psi4 1.3.2 release

  ==> Input File <==

--------------------------------------------------------------------------
memory 144 GB

molecule {
0 1
S 0.0000000000 0.0000000000 0.0000000000
H 0.0000000000 0.0000000000 1.3377284100
H 1.3366219004 0.0000000000 -0.0543984776
}

set dynamic_level 1
set basis aug-cc-pV(T+d)Z

optimize("wB97X-V")
frequencies("wB97X-V")
--------------------------------------------------------------------------

    Molecular point group: c2v
  Charge       = 0
  Multiplicity = 1
  Basis Set: AUG-CC-PV(T+D)Z
    Blend: AUG-CC-PV(T+D)Z
  Basis Set: (AUG-CC-PV(T+D)Z AUX)
    Blend: AUG-CC-PVTZ-JKFIT
  @DF-RKS Final Energy:  -399.34984707212703
    Total Energy =                       -399.3498470721270337
    Molecular point group: c2v
  Basis Set: AUG-CC-PV(T+D)Z
    Blend: AUG-CC-PV(T+D)Z
  Basis Set: (AUG-CC-PV(T+D)Z AUX)
    Blend: AUG-CC-PVTZ-JKFIT
  @DF-RKS Final Energy:  -399.34984346067807
    Total Energy =                       -399.3498434606780734
  Basis Set: AUG-CC-PV(T+D)Z
    Blend: AUG-CC-PV(T+D)Z
  Basis Set: (AUG-CC-PV(T+D)Z AUX)
    Blend: AUG-CC-PVTZ-JKFIT
  @DF-RKS Final Energy:  -399.34984652555875
    Total Energy =                       -399.3498465255588030
  Basis Set: AUG-CC-PV(T+D)Z
    Blend: AUG-CC-PV(T+D)Z
  Basis Set: (AUG-CC-PV(T+D)Z AUX)
    Blend: AUG-CC-PVTZ-JKFIT
  @DF-RKS Final Energy:  -399.34984198492651
    Total Energy =                       -399.3498419849265133
  @DF-RKS Final Energy:  -399.34984767137917
    Total Energy =                       -399.3498476713791661
  @DF-RKS Final Energy:  -399.34985041486431
    Total Energy =                       -399.3498504148643633
  @DF-RKS Final Energy:  -399.34984826329480
    Total Energy =                       -399.3498482632947457
  @DF-RKS Final Energy:  -399.34984842494356
    Total Energy =                       -399.3498484249436160
  @DF-RKS Final Energy:  -399.34984874795015
    Total Energy =                       -399.3498487479502046
  @DF-RKS Final Energy:  -399.34984759315648
    Total Energy =                       -399.3498475931565395
  **** Optimization is complete! (in 2 steps) ****
    Final optimized geometry and variables:
  @DF-RKS Final Energy:  -399.34985041486402
    Total Energy =                       -399.3498504148640222
  @DF-RKS Final Energy:  -399.34984826329577
    Total Energy =                       -399.3498482632957689
  @DF-RKS Final Energy:  -399.34984842494362
    Total Energy =                       -399.3498484249436160
  @DF-RKS Final Energy:  -399.34984874795026
    Total Energy =                       -399.3498487479502614
  @DF-RKS Final Energy:  -399.34984759315682
    Total Energy =                       -399.3498475931568237
  @DF-RKS Final Energy:  -399.34985041486425
    Total Energy =                       -399.3498504148642496
  @DF-RKS Final Energy:  -399.34984826329526
    Total Energy =                       -399.3498482632952573
  @DF-RKS Final Energy:  -399.34984842494327
    Total Energy =                       -399.3498484249432749
  @DF-RKS Final Energy:  -399.34984874795055
    Total Energy =                       -399.3498487479506025
  Basis Set: AUG-CC-PV(T+D)Z
    Blend: AUG-CC-PV(T+D)Z
  Basis Set: (AUG-CC-PV(T+D)Z AUX)
    Blend: AUG-CC-PVTZ-JKFIT
  @DF-RKS Final Energy:  -399.34984759315665
    Total Energy =                       -399.3498475931566531
  Basis Set: AUG-CC-PV(T+D)Z
    Blend: AUG-CC-PV(T+D)Z
  Basis Set: (AUG-CC-PV(T+D)Z AUX)
    Blend: AUG-CC-PVTZ-JKFIT
  @DF-RKS Final Energy:  -399.34984850149345
    Total Energy =                       -399.3498485014934545
  Multiplicity = 1
  Basis Set: AUG-CC-PV(T+D)Z
    Blend: AUG-CC-PV(T+D)Z
  Basis Set: (AUG-CC-PV(T+D)Z AUX)
    Blend: AUG-CC-PVTZ-JKFIT
  @DF-RKS Final Energy:  -399.34984949691352
    Total Energy =                       -399.3498494969135209
    Molecular point group: cs

    Geometry (in Angstrom), charge = 0, multiplicity = 1:

       Center              X                  Y                   Z               Mass
    ------------   -----------------  -----------------  -----------------  -----------------
         S            0.000000000000    -0.000083658811    -0.054761680151    31.972071174400
         H            0.000000000000     0.969648179364     0.869890558792     1.007825032230
         H            0.000000000000    -0.966994201379     0.867359737059     1.007825032230

  Charge       = 0
  Multiplicity = 1
  Basis Set: AUG-CC-PV(T+D)Z
    Blend: AUG-CC-PV(T+D)Z
  Basis Set: (AUG-CC-PV(T+D)Z AUX)
    Blend: AUG-CC-PVTZ-JKFIT

    Orbital Energies [Eh]
    ---------------------

    Doubly Occupied:

       1Ap   -88.895357     2Ap    -8.053141     3Ap    -6.009994
       4Ap    -6.006605     1App   -6.000570     5Ap    -0.872869
       6Ap    -0.552500     7Ap    -0.472326     2App   -0.367377

  @DF-RKS Final Energy:  -399.34984682252991

   => Energetics <=

    Nuclear Repulsion Energy =             12.9290673639991649
    One-Electron Energy =                -576.6958110633631804
    Two-Electron Energy =                 184.0738678229229208
    DFT Exchange-Correlation Energy =     -19.7327226735021846
    Empirical Dispersion Energy =           0.0000000000000000
    VV10 Nonlocal Energy =                  0.0757517274134161
    Total Energy =                       -399.3498468225298552

  Dipole Moment: [D]
     X:     0.0000      Y:     0.0001      Z:     1.0488     Total:     1.0488

  Vibration                       7                   8                   9
  Freq [cm^-1]                1221.0017           2755.7362           2762.4350
  Irrep                           A1                  B2                  A1
  Reduced mass [u]              1.0395              1.0400              1.0358
  Force const [mDyne/A]         0.9130              4.6534              4.6570

  ==> Thermochemistry Components <==

  Entropy, S
    Electronic S            0.000 [cal/(mol K)]        0.000 [J/(mol K)]       0.00000000 [mEh/K] (multiplicity = 1)
    Translational S        36.501 [cal/(mol K)]      152.721 [J/(mol K)]       0.05816835 [mEh/K] (mol. weight = 33.9877 [u], P = 101325.00 [Pa])
    Rotational S           12.576 [cal/(mol K)]       52.618 [J/(mol K)]       0.02004124 [mEh/K] (symmetry no. = 2)
    Vibrational S           0.038 [cal/(mol K)]        0.159 [J/(mol K)]       0.00006057 [mEh/K]
  Total S                  49.115 [cal/(mol K)]      205.498 [J/(mol K)]       0.07827016 [mEh/K]
  Correction S              0.000 [cal/(mol K)]        0.000 [J/(mol K)]       0.00000000 [mEh/K]

  Constant volume heat capacity, Cv
    Electronic Cv           0.000 [cal/(mol K)]        0.000 [J/(mol K)]       0.00000000 [mEh/K]
    Translational Cv        2.981 [cal/(mol K)]       12.472 [J/(mol K)]       0.00475022 [mEh/K]
    Rotational Cv           2.981 [cal/(mol K)]       12.472 [J/(mol K)]       0.00475022 [mEh/K]
    Vibrational Cv          0.193 [cal/(mol K)]        0.806 [J/(mol K)]       0.00030709 [mEh/K]
  Total Cv                  6.154 [cal/(mol K)]       25.750 [J/(mol K)]       0.00980752 [mEh/K]
  Correction Cv             0.000 [cal/(mol K)]        0.000 [J/(mol K)]       0.00000000 [mEh/K]

  Constant pressure heat capacity, Cp
    Electronic Cp           0.000 [cal/(mol K)]        0.000 [J/(mol K)]       0.00000000 [mEh/K]
    Translational Cp        4.968 [cal/(mol K)]       20.786 [J/(mol K)]       0.00791703 [mEh/K]
    Rotational Cp           2.981 [cal/(mol K)]       12.472 [J/(mol K)]       0.00475022 [mEh/K]
    Vibrational Cp          0.193 [cal/(mol K)]        0.806 [J/(mol K)]       0.00030709 [mEh/K]
  Total Cp                  8.142 [cal/(mol K)]       34.064 [J/(mol K)]       0.01297433 [mEh/K]
  Correction Cp             0.000 [cal/(mol K)]        0.000 [J/(mol K)]       0.00000000 [mEh/K]

  ==> Thermochemistry Energy Analysis <==

  Raw electronic energy, E0
  Total E0, Electronic energy at well bottom at 0 [K]                 -399.34985041 [Eh]

  Zero-point energy, ZPE_vib = Sum_i nu_i / 2
    Electronic ZPE          0.000 [kcal/mol]        0.000 [kJ/mol]       0.00000000 [Eh]
    Translational ZPE       0.000 [kcal/mol]        0.000 [kJ/mol]       0.00000000 [Eh]
    Rotational ZPE          0.000 [kcal/mol]        0.000 [kJ/mol]       0.00000000 [Eh]
    Vibrational ZPE         9.634 [kcal/mol]       40.309 [kJ/mol]       0.01535297 [Eh]        3369.586 [cm^-1]
  Correction ZPE            9.634 [kcal/mol]       40.309 [kJ/mol]       0.01535297 [Eh]        3369.586 [cm^-1]
  Total ZPE, Electronic energy at 0 [K]                               -399.33449745 [Eh]

  Thermal Energy, E (includes ZPE)
    Electronic E            0.000 [kcal/mol]        0.000 [kJ/mol]       0.00000000 [Eh]
    Translational E         0.889 [kcal/mol]        3.718 [kJ/mol]       0.00141628 [Eh]
    Rotational E            0.889 [kcal/mol]        3.718 [kJ/mol]       0.00141628 [Eh]
    Vibrational E           9.644 [kcal/mol]       40.350 [kJ/mol]       0.01536841 [Eh]
  Correction E             11.421 [kcal/mol]       47.787 [kJ/mol]       0.01820096 [Eh]
  Total E, Electronic energy at  298.15 [K]                           -399.33164945 [Eh]

  Enthalpy, H_trans = E_trans + k_B * T
    Electronic H            0.000 [kcal/mol]        0.000 [kJ/mol]       0.00000000 [Eh]
    Translational H         1.481 [kcal/mol]        6.197 [kJ/mol]       0.00236046 [Eh]
    Rotational H            0.889 [kcal/mol]        3.718 [kJ/mol]       0.00141628 [Eh]
    Vibrational H           9.644 [kcal/mol]       40.350 [kJ/mol]       0.01536841 [Eh]
  Correction H             12.014 [kcal/mol]       50.266 [kJ/mol]       0.01914515 [Eh]
  Total H, Enthalpy at  298.15 [K]                                    -399.33070527 [Eh]

  Gibbs free energy, G = H - T * S
    Electronic G            0.000 [kcal/mol]        0.000 [kJ/mol]       0.00000000 [Eh]
    Translational G        -9.402 [kcal/mol]      -39.336 [kJ/mol]      -0.01498243 [Eh]
    Rotational G           -2.861 [kcal/mol]      -11.970 [kJ/mol]      -0.00455902 [Eh]
    Vibrational G           9.632 [kcal/mol]       40.302 [kJ/mol]       0.01535035 [Eh]
  Correction G             -2.630 [kcal/mol]      -11.004 [kJ/mol]      -0.00419110 [Eh]
  Total G, Free enthalpy at  298.15 [K]                               -399.35404152 [Eh]

*** Psi4 exiting successfully. Buy a developer a beer!
