                               Psi4 1.3.2 release

  ==> Input File <==

--------------------------------------------------------------------------
memory 144 GB

molecule {
0 1
Cl 0.0000000000 0.0000000000 0.0000000000
H 0.0000000000 0.0000000000 1.2756042300
}

set dynamic_level 1
set basis aug-cc-pV(T+d)Z

optimize("wB97X-V")
frequencies("wB97X-V")
--------------------------------------------------------------------------

    Molecular point group: c2v
  Charge       = 0
  Multiplicity = 1
  Basis Set: AUG-CC-PV(T+D)Z
    Blend: AUG-CC-PV(T+D)Z
  Basis Set: (AUG-CC-PV(T+D)Z AUX)
    Blend: AUG-CC-PVTZ-JKFIT
  @DF-RKS Final Energy:  -460.75761870288505
    Total Energy =                       -460.7576187028849972
    Molecular point group: c2v
  Basis Set: AUG-CC-PV(T+D)Z
    Blend: AUG-CC-PV(T+D)Z
  Basis Set: (AUG-CC-PV(T+D)Z AUX)
    Blend: AUG-CC-PVTZ-JKFIT
  @DF-RKS Final Energy:  -460.75761660894204
    Total Energy =                       -460.7576166089420440
  Basis Set: AUG-CC-PV(T+D)Z
    Blend: AUG-CC-PV(T+D)Z
  Basis Set: (AUG-CC-PV(T+D)Z AUX)
    Blend: AUG-CC-PVTZ-JKFIT
  @DF-RKS Final Energy:  -460.75761207736019
    Total Energy =                       -460.7576120773601360
  Basis Set: AUG-CC-PV(T+D)Z
    Blend: AUG-CC-PV(T+D)Z
  Basis Set: (AUG-CC-PV(T+D)Z AUX)
    Blend: AUG-CC-PVTZ-JKFIT
  @DF-RKS Final Energy:  -460.75761899077327
    Total Energy =                       -460.7576189907733237
  @DF-RKS Final Energy:  -460.75761452456243
    Total Energy =                       -460.7576145245624275
  @DF-RKS Final Energy:  -460.75761477211518
    Total Energy =                       -460.7576147721152324
  **** Optimization is complete! (in 2 steps) ****
    Final optimized geometry and variables:
  @DF-RKS Final Energy:  -460.75761899077315
    Total Energy =                       -460.7576189907731532
  @DF-RKS Final Energy:  -460.75761452456197
    Total Energy =                       -460.7576145245619159
  Basis Set: AUG-CC-PV(T+D)Z
    Blend: AUG-CC-PV(T+D)Z
  Basis Set: (AUG-CC-PV(T+D)Z AUX)
    Blend: AUG-CC-PVTZ-JKFIT
  @DF-RKS Final Energy:  -460.75761477211523
    Total Energy =                       -460.7576147721152324
  Basis Set: AUG-CC-PV(T+D)Z
    Blend: AUG-CC-PV(T+D)Z
  Basis Set: (AUG-CC-PV(T+D)Z AUX)
    Blend: AUG-CC-PVTZ-JKFIT
  @DF-RKS Final Energy:  -460.75761899077327
    Total Energy =                       -460.7576189907732669
  Multiplicity = 1
  Basis Set: AUG-CC-PV(T+D)Z
    Blend: AUG-CC-PV(T+D)Z
  Basis Set: (AUG-CC-PV(T+D)Z AUX)
    Blend: AUG-CC-PVTZ-JKFIT
  @DF-RKS Final Energy:  -460.75761452456231
    Total Energy =                       -460.7576145245623138
    Molecular point group: c2v

    Geometry (in Angstrom), charge = 0, multiplicity = 1:

       Center              X                  Y                   Z               Mass
    ------------   -----------------  -----------------  -----------------  -----------------
         CL           0.000000000000     0.000000000000    -0.035679549216    34.968852682000
         H            0.000000000000     0.000000000000     1.237985622886     1.007825032230

  Charge       = 0
  Multiplicity = 1
  Basis Set: AUG-CC-PV(T+D)Z
    Blend: AUG-CC-PV(T+D)Z
  Basis Set: (AUG-CC-PV(T+D)Z AUX)
    Blend: AUG-CC-PVTZ-JKFIT

    Orbital Energies [Eh]
    ---------------------

    Doubly Occupied:

       1A1  -101.559126     2A1    -9.575832     3A1    -7.331608
       1B1    -7.322722     1B2    -7.322722     4A1    -0.976674
       5A1    -0.582244     2B2    -0.442039     2B1    -0.442039

  @DF-RKS Final Energy:  -460.75761477211518

   => Energetics <=

    Nuclear Repulsion Energy =              7.0630906602761288
    One-Electron Energy =                -649.8744024914135480
    Two-Electron Energy =                 203.5125493927749574
    DFT Exchange-Correlation Energy =     -21.5352620070281091
    Empirical Dispersion Energy =           0.0000000000000000
    VV10 Nonlocal Energy =                  0.0764096732754697
    Total Energy =                       -460.7576147721151187

  Dipole Moment: [D]
     X:     0.0000      Y:     0.0000      Z:     1.1336     Total:     1.1336

  Vibration                       6
  Freq [cm^-1]                3029.8136
  Irrep                           A1
  Reduced mass [u]              1.0360
  Force const [mDyne/A]         5.6033

  ==> Thermochemistry Components <==

  Entropy, S
    Electronic S            0.000 [cal/(mol K)]        0.000 [J/(mol K)]       0.00000000 [mEh/K] (multiplicity = 1)
    Translational S        36.671 [cal/(mol K)]      153.430 [J/(mol K)]       0.05843851 [mEh/K] (mol. weight = 35.9767 [u], P = 101325.00 [Pa])
    Rotational S            7.902 [cal/(mol K)]       33.061 [J/(mol K)]       0.01259242 [mEh/K] (symmetry no. = 1)
    Vibrational S           0.000 [cal/(mol K)]        0.000 [J/(mol K)]       0.00000002 [mEh/K]
  Total S                  44.573 [cal/(mol K)]      186.492 [J/(mol K)]       0.07103094 [mEh/K]
  Correction S              0.000 [cal/(mol K)]        0.000 [J/(mol K)]       0.00000000 [mEh/K]

  Constant volume heat capacity, Cv
    Electronic Cv           0.000 [cal/(mol K)]        0.000 [J/(mol K)]       0.00000000 [mEh/K]
    Translational Cv        2.981 [cal/(mol K)]       12.472 [J/(mol K)]       0.00475022 [mEh/K]
    Rotational Cv           1.987 [cal/(mol K)]        8.314 [J/(mol K)]       0.00316681 [mEh/K]
    Vibrational Cv          0.000 [cal/(mol K)]        0.001 [J/(mol K)]       0.00000030 [mEh/K]
  Total Cv                  4.968 [cal/(mol K)]       20.787 [J/(mol K)]       0.00791733 [mEh/K]
  Correction Cv             0.000 [cal/(mol K)]        0.000 [J/(mol K)]       0.00000000 [mEh/K]

  Constant pressure heat capacity, Cp
    Electronic Cp           0.000 [cal/(mol K)]        0.000 [J/(mol K)]       0.00000000 [mEh/K]
    Translational Cp        4.968 [cal/(mol K)]       20.786 [J/(mol K)]       0.00791703 [mEh/K]
    Rotational Cp           1.987 [cal/(mol K)]        8.314 [J/(mol K)]       0.00316681 [mEh/K]
    Vibrational Cp          0.000 [cal/(mol K)]        0.001 [J/(mol K)]       0.00000030 [mEh/K]
  Total Cp                  6.955 [cal/(mol K)]       29.101 [J/(mol K)]       0.01108414 [mEh/K]
  Correction Cp             0.000 [cal/(mol K)]        0.000 [J/(mol K)]       0.00000000 [mEh/K]

  ==> Thermochemistry Energy Analysis <==

  Raw electronic energy, E0
  Total E0, Electronic energy at well bottom at 0 [K]                 -460.75761899 [Eh]

  Zero-point energy, ZPE_vib = Sum_i nu_i / 2
    Electronic ZPE          0.000 [kcal/mol]        0.000 [kJ/mol]       0.00000000 [Eh]
    Translational ZPE       0.000 [kcal/mol]        0.000 [kJ/mol]       0.00000000 [Eh]
    Rotational ZPE          0.000 [kcal/mol]        0.000 [kJ/mol]       0.00000000 [Eh]
    Vibrational ZPE         4.331 [kcal/mol]       18.122 [kJ/mol]       0.00690242 [Eh]        1514.907 [cm^-1]
  Correction ZPE            4.331 [kcal/mol]       18.122 [kJ/mol]       0.00690242 [Eh]        1514.907 [cm^-1]
  Total ZPE, Electronic energy at 0 [K]                               -460.75071657 [Eh]

  Thermal Energy, E (includes ZPE)
    Electronic E            0.000 [kcal/mol]        0.000 [kJ/mol]       0.00000000 [Eh]
    Translational E         0.889 [kcal/mol]        3.718 [kJ/mol]       0.00141628 [Eh]
    Rotational E            0.592 [kcal/mol]        2.479 [kJ/mol]       0.00094418 [Eh]
    Vibrational E           4.331 [kcal/mol]       18.122 [kJ/mol]       0.00690243 [Eh]
  Correction E              5.813 [kcal/mol]       24.320 [kJ/mol]       0.00926289 [Eh]
  Total E, Electronic energy at  298.15 [K]                           -460.74835610 [Eh]

  Enthalpy, H_trans = E_trans + k_B * T
    Electronic H            0.000 [kcal/mol]        0.000 [kJ/mol]       0.00000000 [Eh]
    Translational H         1.481 [kcal/mol]        6.197 [kJ/mol]       0.00236046 [Eh]
    Rotational H            0.592 [kcal/mol]        2.479 [kJ/mol]       0.00094418 [Eh]
    Vibrational H           4.331 [kcal/mol]       18.122 [kJ/mol]       0.00690243 [Eh]
  Correction H              6.405 [kcal/mol]       26.799 [kJ/mol]       0.01020708 [Eh]
  Total H, Enthalpy at  298.15 [K]                                    -460.74741192 [Eh]

  Gibbs free energy, G = H - T * S
    Electronic G            0.000 [kcal/mol]        0.000 [kJ/mol]       0.00000000 [Eh]
    Translational G        -9.452 [kcal/mol]      -39.548 [kJ/mol]      -0.01506298 [Eh]
    Rotational G           -1.763 [kcal/mol]       -7.378 [kJ/mol]      -0.00281024 [Eh]
    Vibrational G           4.331 [kcal/mol]       18.122 [kJ/mol]       0.00690242 [Eh]
  Correction G             -6.884 [kcal/mol]      -28.804 [kJ/mol]      -0.01097080 [Eh]
  Total G, Free enthalpy at  298.15 [K]                               -460.76858979 [Eh]

*** Psi4 exiting successfully. Buy a developer a beer!
