                               Psi4 1.3.2 release

  ==> Input File <==

--------------------------------------------------------------------------
memory 144 GB

molecule {
0 1
H 0.0000000000 0.0000000000 0.0000000000
C 0.0000000000 0.0000000000 1.0668000000
N 0.0000000000 0.0000000000 2.2232000000
}

set dynamic_level 1
set basis aug-cc-pV(T+d)Z

optimize("wB97X-V")
frequencies("wB97X-V")
--------------------------------------------------------------------------

    Molecular point group: c2v
  Charge       = 0
  Multiplicity = 1
  Basis Set: AUG-CC-PV(T+D)Z
    Blend: AUG-CC-PV(T+D)Z
  Basis Set: (AUG-CC-PV(T+D)Z AUX)
    Blend: AUG-CC-PVTZ-JKFIT
  @DF-RKS Final Energy:   -93.42713668455838
    Total Energy =                        -93.4271366845583913
    Molecular point group: c2v
  Basis Set: AUG-CC-PV(T+D)Z
    Blend: AUG-CC-PV(T+D)Z
  Basis Set: (AUG-CC-PV(T+D)Z AUX)
    Blend: AUG-CC-PVTZ-JKFIT
  @DF-RKS Final Energy:   -93.42714056107657
    Total Energy =                        -93.4271405610765697
  Basis Set: AUG-CC-PV(T+D)Z
    Blend: AUG-CC-PV(T+D)Z
  Basis Set: (AUG-CC-PV(T+D)Z AUX)
    Blend: AUG-CC-PVTZ-JKFIT
  @DF-RKS Final Energy:   -93.42712230213961
    Total Energy =                        -93.4271223021395940
  Basis Set: AUG-CC-PV(T+D)Z
    Blend: AUG-CC-PV(T+D)Z
  Basis Set: (AUG-CC-PV(T+D)Z AUX)
    Blend: AUG-CC-PVTZ-JKFIT
  @DF-RKS Final Energy:   -93.42708054403889
    Total Energy =                        -93.4270805440388870
  @DF-RKS Final Energy:   -93.42718750088720
    Total Energy =                        -93.4271875008872001
  @DF-RKS Final Energy:   -93.42740941477001
    Total Energy =                        -93.4274094147699969
  @DF-RKS Final Energy:   -93.42740227046883
    Total Energy =                        -93.4274022704688463
  @DF-RKS Final Energy:   -93.42740620384748
    Total Energy =                        -93.4274062038474682
  @DF-RKS Final Energy:   -93.42740652960936
    Total Energy =                        -93.4274065296093426
  @DF-RKS Final Energy:   -93.42740664530469
    Total Energy =                        -93.4274066453046856
  @DF-RKS Final Energy:   -93.42740963001653
    Total Energy =                        -93.4274096300165269
  @DF-RKS Final Energy:   -93.42740456381885
    Total Energy =                        -93.4274045638188539
  @DF-RKS Final Energy:   -93.42740430783151
    Total Energy =                        -93.4274043078315088
  @DF-RKS Final Energy:   -93.42740680397263
    Total Energy =                        -93.4274068039726302
  @DF-RKS Final Energy:   -93.42740679790256
    Total Energy =                        -93.4274067979025631
  **** Optimization is complete! (in 3 steps) ****
    Final optimized geometry and variables:
  @DF-RKS Final Energy:   -93.42740963001624
    Total Energy =                        -93.4274096300162427
  @DF-RKS Final Energy:   -93.42740456470463
    Total Energy =                        -93.4274045647046307
  @DF-RKS Final Energy:   -93.42740430643742
    Total Energy =                        -93.4274043064374240
  @DF-RKS Final Energy:   -93.42740680308728
    Total Energy =                        -93.4274068030872655
  @DF-RKS Final Energy:   -93.42740679790043
    Total Energy =                        -93.4274067979004172
  @DF-RKS Final Energy:   -93.42740963001663
    Total Energy =                        -93.4274096300166264
  @DF-RKS Final Energy:   -93.42740456470499
    Total Energy =                        -93.4274045647049718
  @DF-RKS Final Energy:   -93.42740430643782
    Total Energy =                        -93.4274043064378077
  @DF-RKS Final Energy:   -93.42740680308764
    Total Energy =                        -93.4274068030876208
  @DF-RKS Final Energy:   -93.42740679790070
    Total Energy =                        -93.4274067979007015
  Basis Set: AUG-CC-PV(T+D)Z
    Blend: AUG-CC-PV(T+D)Z
  Basis Set: (AUG-CC-PV(T+D)Z AUX)
    Blend: AUG-CC-PVTZ-JKFIT
  @DF-RKS Final Energy:   -93.42740378344651
    Total Energy =                        -93.4274037834465219
  Basis Set: AUG-CC-PV(T+D)Z
    Blend: AUG-CC-PV(T+D)Z
  Basis Set: (AUG-CC-PV(T+D)Z AUX)
    Blend: AUG-CC-PVTZ-JKFIT
  @DF-RKS Final Energy:   -93.42740401672154
    Total Energy =                        -93.4274040167215389
  Multiplicity = 1
  Basis Set: AUG-CC-PV(T+D)Z
    Blend: AUG-CC-PV(T+D)Z
  Basis Set: (AUG-CC-PV(T+D)Z AUX)
    Blend: AUG-CC-PVTZ-JKFIT
  @DF-RKS Final Energy:   -93.42740934188762
    Total Energy =                        -93.4274093418876248
    Molecular point group: cs

    Geometry (in Angstrom), charge = 0, multiplicity = 1:

       Center              X                  Y                   Z               Mass
    ------------   -----------------  -----------------  -----------------  -----------------
         H            0.000000000000    -0.002246482632    -1.622827386168     1.007825032230
         C            0.000000000000     0.000364685675    -0.554048037995    12.000000000000
         N            0.000000000000    -0.000150835929     0.591591711655    14.003074004430

  Charge       = 0
  Multiplicity = 1
  Basis Set: AUG-CC-PV(T+D)Z
    Blend: AUG-CC-PV(T+D)Z
  Basis Set: (AUG-CC-PV(T+D)Z AUX)
    Blend: AUG-CC-PVTZ-JKFIT

    Orbital Energies [Eh]
    ---------------------

    Doubly Occupied:

       1Ap   -14.436729     2Ap   -10.325641     3Ap    -1.058654
       4Ap    -0.728111     5Ap    -0.500248     1App   -0.476475
       6Ap    -0.476475

  @DF-RKS Final Energy:   -93.42740934244068

   => Energetics <=

    Nuclear Repulsion Energy =             24.0435359767410652
    One-Electron Energy =                -173.0612567072686829
    Two-Electron Energy =                  64.3238661020263578
    DFT Exchange-Correlation Energy =      -8.7919398000444708
    Empirical Dispersion Energy =           0.0000000000000000
    VV10 Nonlocal Energy =                  0.0583850861050549
    Total Energy =                        -93.4274093424406971

  Dipole Moment: [D]
     X:     0.0000      Y:    -0.0024      Z:    -3.0880     Total:     3.0880

  Vibration                       6                   7                   8
  Freq [cm^-1]                 779.6964            780.4458           2235.7764
  Irrep                           B2                  B1                  A1
  Reduced mass [u]              1.3457              1.3457              4.9691
  Force const [mDyne/A]         0.4820              0.4829             14.6347

  Vibration                       9
  Freq [cm^-1]                3458.8611
  Irrep                           A1
  Reduced mass [u]              1.1981
  Force const [mDyne/A]         8.4450

  ==> Thermochemistry Components <==

  Entropy, S
    Electronic S            0.000 [cal/(mol K)]        0.000 [J/(mol K)]       0.00000000 [mEh/K] (multiplicity = 1)
    Translational S        35.816 [cal/(mol K)]      149.856 [J/(mol K)]       0.05707695 [mEh/K] (mol. weight = 27.0109 [u], P = 101325.00 [Pa])
    Rotational S           11.781 [cal/(mol K)]       49.291 [J/(mol K)]       0.01877398 [mEh/K] (symmetry no. = 1)
    Vibrational S           0.449 [cal/(mol K)]        1.878 [J/(mol K)]       0.00071516 [mEh/K]
  Total S                  48.046 [cal/(mol K)]      201.024 [J/(mol K)]       0.07656608 [mEh/K]
  Correction S              0.000 [cal/(mol K)]        0.000 [J/(mol K)]       0.00000000 [mEh/K]

  Constant volume heat capacity, Cv
    Electronic Cv           0.000 [cal/(mol K)]        0.000 [J/(mol K)]       0.00000000 [mEh/K]
    Translational Cv        2.981 [cal/(mol K)]       12.472 [J/(mol K)]       0.00475022 [mEh/K]
    Rotational Cv           1.987 [cal/(mol K)]        8.314 [J/(mol K)]       0.00316681 [mEh/K]
    Vibrational Cv          1.373 [cal/(mol K)]        5.745 [J/(mol K)]       0.00218819 [mEh/K]
  Total Cv                  6.341 [cal/(mol K)]       26.531 [J/(mol K)]       0.01010521 [mEh/K]
  Correction Cv             0.000 [cal/(mol K)]        0.000 [J/(mol K)]       0.00000000 [mEh/K]

  Constant pressure heat capacity, Cp
    Electronic Cp           0.000 [cal/(mol K)]        0.000 [J/(mol K)]       0.00000000 [mEh/K]
    Translational Cp        4.968 [cal/(mol K)]       20.786 [J/(mol K)]       0.00791703 [mEh/K]
    Rotational Cp           1.987 [cal/(mol K)]        8.314 [J/(mol K)]       0.00316681 [mEh/K]
    Vibrational Cp          1.373 [cal/(mol K)]        5.745 [J/(mol K)]       0.00218819 [mEh/K]
  Total Cp                  8.328 [cal/(mol K)]       34.846 [J/(mol K)]       0.01327202 [mEh/K]
  Correction Cp             0.000 [cal/(mol K)]        0.000 [J/(mol K)]       0.00000000 [mEh/K]

  ==> Thermochemistry Energy Analysis <==

  Raw electronic energy, E0
  Total E0, Electronic energy at well bottom at 0 [K]                  -93.42740963 [Eh]

  Zero-point energy, ZPE_vib = Sum_i nu_i / 2
    Electronic ZPE          0.000 [kcal/mol]        0.000 [kJ/mol]       0.00000000 [Eh]
    Translational ZPE       0.000 [kcal/mol]        0.000 [kJ/mol]       0.00000000 [Eh]
    Rotational ZPE          0.000 [kcal/mol]        0.000 [kJ/mol]       0.00000000 [Eh]
    Vibrational ZPE        10.371 [kcal/mol]       43.393 [kJ/mol]       0.01652760 [Eh]        3627.390 [cm^-1]
  Correction ZPE           10.371 [kcal/mol]       43.393 [kJ/mol]       0.01652760 [Eh]        3627.390 [cm^-1]
  Total ZPE, Electronic energy at 0 [K]                                -93.41088203 [Eh]

  Thermal Energy, E (includes ZPE)
    Electronic E            0.000 [kcal/mol]        0.000 [kJ/mol]       0.00000000 [Eh]
    Translational E         0.889 [kcal/mol]        3.718 [kJ/mol]       0.00141628 [Eh]
    Rotational E            0.592 [kcal/mol]        2.479 [kJ/mol]       0.00094418 [Eh]
    Vibrational E          10.477 [kcal/mol]       43.837 [kJ/mol]       0.01669652 [Eh]
  Correction E             11.958 [kcal/mol]       50.034 [kJ/mol]       0.01905698 [Eh]
  Total E, Electronic energy at  298.15 [K]                            -93.40835265 [Eh]

  Enthalpy, H_trans = E_trans + k_B * T
    Electronic H            0.000 [kcal/mol]        0.000 [kJ/mol]       0.00000000 [Eh]
    Translational H         1.481 [kcal/mol]        6.197 [kJ/mol]       0.00236046 [Eh]
    Rotational H            0.592 [kcal/mol]        2.479 [kJ/mol]       0.00094418 [Eh]
    Vibrational H          10.477 [kcal/mol]       43.837 [kJ/mol]       0.01669652 [Eh]
  Correction H             12.551 [kcal/mol]       52.513 [kJ/mol]       0.02000116 [Eh]
  Total H, Enthalpy at  298.15 [K]                                     -93.40740847 [Eh]

  Gibbs free energy, G = H - T * S
    Electronic G            0.000 [kcal/mol]        0.000 [kJ/mol]       0.00000000 [Eh]
    Translational G        -9.197 [kcal/mol]      -38.482 [kJ/mol]      -0.01465703 [Eh]
    Rotational G           -2.920 [kcal/mol]      -12.217 [kJ/mol]      -0.00465328 [Eh]
    Vibrational G          10.343 [kcal/mol]       43.277 [kJ/mol]       0.01648329 [Eh]
  Correction G             -1.774 [kcal/mol]       -7.422 [kJ/mol]      -0.00282701 [Eh]
  Total G, Free enthalpy at  298.15 [K]                                -93.43023664 [Eh]

*** Psi4 exiting successfully. Buy a developer a beer!
