                               Psi4 1.3.2 release

  ==> Input File <==

--------------------------------------------------------------------------
memory 144 GB

molecule {
0 1
F 0.0000000000 0.0000000000 0.0000000000
H 0.0000000000 0.0000000000 0.9157690000
}

set dynamic_level 1
set basis aug-cc-pV(T+d)Z

optimize("wB97X-V")
frequencies("wB97X-V")
--------------------------------------------------------------------------

    Molecular point group: c2v
  Charge       = 0
  Multiplicity = 1
  Basis Set: AUG-CC-PV(T+D)Z
    Blend: AUG-CC-PV(T+D)Z
  Basis Set: (AUG-CC-PV(T+D)Z AUX)
    Blend: AUG-CC-PVTZ-JKFIT
  @DF-RKS Final Energy:  -100.45121935954181
    Total Energy =                       -100.4512193595417955
    Molecular point group: c2v
  Basis Set: AUG-CC-PV(T+D)Z
    Blend: AUG-CC-PV(T+D)Z
  Basis Set: (AUG-CC-PV(T+D)Z AUX)
    Blend: AUG-CC-PVTZ-JKFIT
  @DF-RKS Final Energy:  -100.45125034819461
    Total Energy =                       -100.4512503481946197
  Basis Set: AUG-CC-PV(T+D)Z
    Blend: AUG-CC-PV(T+D)Z
  Basis Set: (AUG-CC-PV(T+D)Z AUX)
    Blend: AUG-CC-PVTZ-JKFIT
  @DF-RKS Final Energy:  -100.45117151983099
    Total Energy =                       -100.4511715198309787
  Basis Set: AUG-CC-PV(T+D)Z
    Blend: AUG-CC-PV(T+D)Z
  Basis Set: (AUG-CC-PV(T+D)Z AUX)
    Blend: AUG-CC-PVTZ-JKFIT
  @DF-RKS Final Energy:  -100.45126593804825
    Total Energy =                       -100.4512659380482376
  @DF-RKS Final Energy:  -100.45125971400724
    Total Energy =                       -100.4512597140072359
  @DF-RKS Final Energy:  -100.45125603778210
    Total Energy =                       -100.4512560377821018
  @DF-RKS Final Energy:  -100.45126603684123
    Total Energy =                       -100.4512660368412327
  @DF-RKS Final Energy:  -100.45125803422489
    Total Energy =                       -100.4512580342248924
  @DF-RKS Final Energy:  -100.45125795014684
    Total Energy =                       -100.4512579501468252
  **** Optimization is complete! (in 3 steps) ****
    Final optimized geometry and variables:
  @DF-RKS Final Energy:  -100.45126603684135
    Total Energy =                       -100.4512660368413464
  @DF-RKS Final Energy:  -100.45125803422489
    Total Energy =                       -100.4512580342248924
  Basis Set: AUG-CC-PV(T+D)Z
    Blend: AUG-CC-PV(T+D)Z
  Basis Set: (AUG-CC-PV(T+D)Z AUX)
    Blend: AUG-CC-PVTZ-JKFIT
  @DF-RKS Final Energy:  -100.45125795014701
    Total Energy =                       -100.4512579501470100
  Basis Set: AUG-CC-PV(T+D)Z
    Blend: AUG-CC-PV(T+D)Z
  Basis Set: (AUG-CC-PV(T+D)Z AUX)
    Blend: AUG-CC-PVTZ-JKFIT
  @DF-RKS Final Energy:  -100.45126603684120
    Total Energy =                       -100.4512660368412327
  Multiplicity = 1
  Basis Set: AUG-CC-PV(T+D)Z
    Blend: AUG-CC-PV(T+D)Z
  Basis Set: (AUG-CC-PV(T+D)Z AUX)
    Blend: AUG-CC-PVTZ-JKFIT
  @DF-RKS Final Energy:  -100.45125803422488
    Total Energy =                       -100.4512580342248924
    Molecular point group: c2v

    Geometry (in Angstrom), charge = 0, multiplicity = 1:

       Center              X                  Y                   Z               Mass
    ------------   -----------------  -----------------  -----------------  -----------------
         F            0.000000000000     0.000000000000    -0.046321877509    18.998403162730
         H            0.000000000000     0.000000000000     0.873208817038     1.007825032230

  Charge       = 0
  Multiplicity = 1
  Basis Set: AUG-CC-PV(T+D)Z
    Blend: AUG-CC-PV(T+D)Z
  Basis Set: (AUG-CC-PV(T+D)Z AUX)
    Blend: AUG-CC-PVTZ-JKFIT

    Orbital Energies [Eh]
    ---------------------

    Doubly Occupied:

       1A1   -24.762239     2A1    -1.333322     3A1    -0.667895
       1B1    -0.532061     1B2    -0.532061

  @DF-RKS Final Energy:  -100.45125795014694

   => Energetics <=

    Nuclear Repulsion Energy =              5.1793756579001586
    One-Electron Energy =                -150.4055576492800981
    Two-Electron Energy =                  52.4787441423458958
    DFT Exchange-Correlation Energy =      -7.7472049709482533
    Empirical Dispersion Energy =           0.0000000000000000
    VV10 Nonlocal Energy =                  0.0433848698353699
    Total Energy =                       -100.4512579501469247

  Dipole Moment: [D]
     X:     0.0000      Y:     0.0000      Z:     1.8067     Total:     1.8067

  Vibration                       6
  Freq [cm^-1]                4123.8512
  Irrep                           A1
  Reduced mass [u]              1.0583
  Force const [mDyne/A]        10.6040

  ==> Thermochemistry Components <==

  Entropy, S
    Electronic S            0.000 [cal/(mol K)]        0.000 [J/(mol K)]       0.00000000 [mEh/K] (multiplicity = 1)
    Translational S        34.921 [cal/(mol K)]      146.112 [J/(mol K)]       0.05565095 [mEh/K] (mol. weight = 20.0062 [u], P = 101325.00 [Pa])
    Rotational S            6.564 [cal/(mol K)]       27.464 [J/(mol K)]       0.01046060 [mEh/K] (symmetry no. = 1)
    Vibrational S           0.000 [cal/(mol K)]        0.000 [J/(mol K)]       0.00000000 [mEh/K]
  Total S                  41.486 [cal/(mol K)]      173.576 [J/(mol K)]       0.06611154 [mEh/K]
  Correction S              0.000 [cal/(mol K)]        0.000 [J/(mol K)]       0.00000000 [mEh/K]

  Constant volume heat capacity, Cv
    Electronic Cv           0.000 [cal/(mol K)]        0.000 [J/(mol K)]       0.00000000 [mEh/K]
    Translational Cv        2.981 [cal/(mol K)]       12.472 [J/(mol K)]       0.00475022 [mEh/K]
    Rotational Cv           1.987 [cal/(mol K)]        8.314 [J/(mol K)]       0.00316681 [mEh/K]
    Vibrational Cv          0.000 [cal/(mol K)]        0.000 [J/(mol K)]       0.00000000 [mEh/K]
  Total Cv                  4.968 [cal/(mol K)]       20.786 [J/(mol K)]       0.00791703 [mEh/K]
  Correction Cv             0.000 [cal/(mol K)]        0.000 [J/(mol K)]       0.00000000 [mEh/K]

  Constant pressure heat capacity, Cp
    Electronic Cp           0.000 [cal/(mol K)]        0.000 [J/(mol K)]       0.00000000 [mEh/K]
    Translational Cp        4.968 [cal/(mol K)]       20.786 [J/(mol K)]       0.00791703 [mEh/K]
    Rotational Cp           1.987 [cal/(mol K)]        8.314 [J/(mol K)]       0.00316681 [mEh/K]
    Vibrational Cp          0.000 [cal/(mol K)]        0.000 [J/(mol K)]       0.00000000 [mEh/K]
  Total Cp                  6.955 [cal/(mol K)]       29.101 [J/(mol K)]       0.01108384 [mEh/K]
  Correction Cp             0.000 [cal/(mol K)]        0.000 [J/(mol K)]       0.00000000 [mEh/K]

  ==> Thermochemistry Energy Analysis <==

  Raw electronic energy, E0
  Total E0, Electronic energy at well bottom at 0 [K]                 -100.45126604 [Eh]

  Zero-point energy, ZPE_vib = Sum_i nu_i / 2
    Electronic ZPE          0.000 [kcal/mol]        0.000 [kJ/mol]       0.00000000 [Eh]
    Translational ZPE       0.000 [kcal/mol]        0.000 [kJ/mol]       0.00000000 [Eh]
    Rotational ZPE          0.000 [kcal/mol]        0.000 [kJ/mol]       0.00000000 [Eh]
    Vibrational ZPE         5.895 [kcal/mol]       24.666 [kJ/mol]       0.00939482 [Eh]        2061.926 [cm^-1]
  Correction ZPE            5.895 [kcal/mol]       24.666 [kJ/mol]       0.00939482 [Eh]        2061.926 [cm^-1]
  Total ZPE, Electronic energy at 0 [K]                               -100.44187121 [Eh]

  Thermal Energy, E (includes ZPE)
    Electronic E            0.000 [kcal/mol]        0.000 [kJ/mol]       0.00000000 [Eh]
    Translational E         0.889 [kcal/mol]        3.718 [kJ/mol]       0.00141628 [Eh]
    Rotational E            0.592 [kcal/mol]        2.479 [kJ/mol]       0.00094418 [Eh]
    Vibrational E           5.895 [kcal/mol]       24.666 [kJ/mol]       0.00939482 [Eh]
  Correction E              7.377 [kcal/mol]       30.863 [kJ/mol]       0.01175529 [Eh]
  Total E, Electronic energy at  298.15 [K]                           -100.43951075 [Eh]

  Enthalpy, H_trans = E_trans + k_B * T
    Electronic H            0.000 [kcal/mol]        0.000 [kJ/mol]       0.00000000 [Eh]
    Translational H         1.481 [kcal/mol]        6.197 [kJ/mol]       0.00236046 [Eh]
    Rotational H            0.592 [kcal/mol]        2.479 [kJ/mol]       0.00094418 [Eh]
    Vibrational H           5.895 [kcal/mol]       24.666 [kJ/mol]       0.00939482 [Eh]
  Correction H              7.969 [kcal/mol]       33.342 [kJ/mol]       0.01269947 [Eh]
  Total H, Enthalpy at  298.15 [K]                                    -100.43856657 [Eh]

  Gibbs free energy, G = H - T * S
    Electronic G            0.000 [kcal/mol]        0.000 [kJ/mol]       0.00000000 [Eh]
    Translational G        -8.931 [kcal/mol]      -37.366 [kJ/mol]      -0.01423187 [Eh]
    Rotational G           -1.365 [kcal/mol]       -5.710 [kJ/mol]      -0.00217464 [Eh]
    Vibrational G           5.895 [kcal/mol]       24.666 [kJ/mol]       0.00939482 [Eh]
  Correction G             -4.400 [kcal/mol]      -18.409 [kJ/mol]      -0.00701169 [Eh]
  Total G, Free enthalpy at  298.15 [K]                               -100.45827772 [Eh]

*** Psi4 exiting successfully. Buy a developer a beer!
