                               Psi4 1.3.2 release

  ==> Input File <==

--------------------------------------------------------------------------
memory 144 GB

molecule {
0 1
N 0.0000000000 0.0000000000 0.0000000000
H 0.0000000000 0.0000000000 1.0535284100
O 1.1513717966 0.0000000000 -0.3743228181
}

set dynamic_level 1
set basis aug-cc-pV(T+d)Z

optimize("wB97X-V")
frequencies("wB97X-V")
--------------------------------------------------------------------------

    Molecular point group: cs
  Charge       = 0
  Multiplicity = 1
  Basis Set: AUG-CC-PV(T+D)Z
    Blend: AUG-CC-PV(T+D)Z
  Basis Set: (AUG-CC-PV(T+D)Z AUX)
    Blend: AUG-CC-PVTZ-JKFIT
  @DF-RKS Final Energy:  -130.48168537556253
    Total Energy =                       -130.4816853755625345
    Molecular point group: cs
  Basis Set: AUG-CC-PV(T+D)Z
    Blend: AUG-CC-PV(T+D)Z
  Basis Set: (AUG-CC-PV(T+D)Z AUX)
    Blend: AUG-CC-PVTZ-JKFIT
  @DF-RKS Final Energy:  -130.48172459141048
    Total Energy =                       -130.4817245914105115
  Basis Set: AUG-CC-PV(T+D)Z
    Blend: AUG-CC-PV(T+D)Z
  Basis Set: (AUG-CC-PV(T+D)Z AUX)
    Blend: AUG-CC-PVTZ-JKFIT
  @DF-RKS Final Energy:  -130.48164365896224
    Total Energy =                       -130.4816436589622413
  Basis Set: AUG-CC-PV(T+D)Z
    Blend: AUG-CC-PV(T+D)Z
  Basis Set: (AUG-CC-PV(T+D)Z AUX)
    Blend: AUG-CC-PVTZ-JKFIT
  @DF-RKS Final Energy:  -130.48169297311378
    Total Energy =                       -130.4816929731137805
  @DF-RKS Final Energy:  -130.48167238269622
    Total Energy =                       -130.4816723826962175
  @DF-RKS Final Energy:  -130.48168728696439
    Total Energy =                       -130.4816872869643589
  @DF-RKS Final Energy:  -130.48167784213294
    Total Energy =                       -130.4816778421329104
  @DF-RKS Final Energy:  -130.48199834711826
    Total Energy =                       -130.4819983471182638
  @DF-RKS Final Energy:  -130.48200653925392
    Total Energy =                       -130.4820065392539163
  @DF-RKS Final Energy:  -130.48198745066099
    Total Energy =                       -130.4819874506610233
  @DF-RKS Final Energy:  -130.48199816374714
    Total Energy =                       -130.4819981637471358
  @DF-RKS Final Energy:  -130.48199317771810
    Total Energy =                       -130.4819931777180670
  @DF-RKS Final Energy:  -130.48198798402478
    Total Energy =                       -130.4819879840247552
  @DF-RKS Final Energy:  -130.48200304522271
    Total Energy =                       -130.4820030452227115
  @DF-RKS Final Energy:  -130.48201283486529
    Total Energy =                       -130.4820128348652588
  @DF-RKS Final Energy:  -130.48200819507213
    Total Energy =                       -130.4820081950721260
  @DF-RKS Final Energy:  -130.48201469983587
    Total Energy =                       -130.4820146998358723
  @DF-RKS Final Energy:  -130.48201642546485
    Total Energy =                       -130.4820164254648489
  @DF-RKS Final Energy:  -130.48200400838218
    Total Energy =                       -130.4820040083821766
  @DF-RKS Final Energy:  -130.48201209489523
    Total Energy =                       -130.4820120948952251
  **** Optimization is complete! (in 5 steps) ****
    Final optimized geometry and variables:
  @DF-RKS Final Energy:  -130.48202282218497
    Total Energy =                       -130.4820228221850016
  @DF-RKS Final Energy:  -130.48202145599228
    Total Energy =                       -130.4820214559922817
  @DF-RKS Final Energy:  -130.48202142732978
    Total Energy =                       -130.4820214273297836
  @DF-RKS Final Energy:  -130.48202020778200
    Total Energy =                       -130.4820202077819999
  @DF-RKS Final Energy:  -130.48202020116742
    Total Energy =                       -130.4820202011674155
  @DF-RKS Final Energy:  -130.48202005976549
    Total Energy =                       -130.4820200597654605
  @DF-RKS Final Energy:  -130.48201999455529
    Total Energy =                       -130.4820199945552872
  @DF-RKS Final Energy:  -130.48202282218529
    Total Energy =                       -130.4820228221852858
  @DF-RKS Final Energy:  -130.48202145599248
    Total Energy =                       -130.4820214559924807
  @DF-RKS Final Energy:  -130.48202142732998
    Total Energy =                       -130.4820214273299825
  @DF-RKS Final Energy:  -130.48202020778214
    Total Energy =                       -130.4820202077821421
  @DF-RKS Final Energy:  -130.48202020116753
    Total Energy =                       -130.4820202011675292
  @DF-RKS Final Energy:  -130.48202005976586
    Total Energy =                       -130.4820200597658584
  @DF-RKS Final Energy:  -130.48201999455557
    Total Energy =                       -130.4820199945555714
  @DF-RKS Final Energy:  -130.48201896653975
    Total Energy =                       -130.4820189665397550
  @DF-RKS Final Energy:  -130.48201900052942
    Total Energy =                       -130.4820190005294478
  Basis Set: AUG-CC-PV(T+D)Z
    Blend: AUG-CC-PV(T+D)Z
  Basis Set: (AUG-CC-PV(T+D)Z AUX)
    Blend: AUG-CC-PVTZ-JKFIT
  @DF-RKS Final Energy:  -130.48201816869894
    Total Energy =                       -130.4820181686989429
  Basis Set: AUG-CC-PV(T+D)Z
    Blend: AUG-CC-PV(T+D)Z
  Basis Set: (AUG-CC-PV(T+D)Z AUX)
    Blend: AUG-CC-PVTZ-JKFIT
  @DF-RKS Final Energy:  -130.48201825651429
    Total Energy =                       -130.4820182565142943
  Multiplicity = 1
  Basis Set: AUG-CC-PV(T+D)Z
    Blend: AUG-CC-PV(T+D)Z
  Basis Set: (AUG-CC-PV(T+D)Z AUX)
    Blend: AUG-CC-PVTZ-JKFIT
  @DF-RKS Final Energy:  -130.48202033150295
    Total Energy =                       -130.4820203315029801
    Molecular point group: cs

    Geometry (in Angstrom), charge = 0, multiplicity = 1:

       Center              X                  Y                   Z               Mass
    ------------   -----------------  -----------------  -----------------  -----------------
         N            0.585992539255     0.156598827161     0.000000000000    14.003074004430
         H            0.591560859669     1.213174279198     0.000000000000     1.007825032230
         O           -0.550292824003    -0.213538643626     0.000000000000    15.994914619570

  Charge       = 0
  Multiplicity = 1
  Basis Set: AUG-CC-PV(T+D)Z
    Blend: AUG-CC-PV(T+D)Z
  Basis Set: (AUG-CC-PV(T+D)Z AUX)
    Blend: AUG-CC-PVTZ-JKFIT

    Orbital Energies [Eh]
    ---------------------

    Doubly Occupied:

       1Ap   -19.305932     2Ap   -14.544234     3Ap    -1.321007
       4Ap    -0.855790     5Ap    -0.657182     1App   -0.582706
       6Ap    -0.576492     7Ap    -0.356696

  @DF-RKS Final Energy:  -130.48202039953222

   => Energetics <=

    Nuclear Repulsion Energy =             30.6197069838105982
    One-Electron Energy =                -238.3308128121370828
    Two-Electron Energy =                  88.3039486617855687
    DFT Exchange-Correlation Energy =     -11.1418131670174532
    Empirical Dispersion Energy =           0.0000000000000000
    VV10 Nonlocal Energy =                  0.0669499340261678
    Total Energy =                       -130.4820203995322174

  Dipole Moment: [D]
     X:     0.4358      Y:     1.6561      Z:     0.0000     Total:     1.7125

  Vibration                       7                   8                   9
  Freq [cm^-1]                1580.1062           1725.9142           2980.8088
  Irrep                           Ap                  Ap                  Ap
  Reduced mass [u]              1.2019             10.5855              1.0752
  Force const [mDyne/A]         1.7681             18.5780              5.6287

  ==> Thermochemistry Components <==

  Entropy, S
    Electronic S            0.000 [cal/(mol K)]        0.000 [J/(mol K)]       0.00000000 [mEh/K] (multiplicity = 1)
    Translational S        36.227 [cal/(mol K)]      151.576 [J/(mol K)]       0.05773217 [mEh/K] (mol. weight = 31.0058 [u], P = 101325.00 [Pa])
    Rotational S           16.443 [cal/(mol K)]       68.799 [J/(mol K)]       0.02620397 [mEh/K] (symmetry no. = 1)
    Vibrational S           0.013 [cal/(mol K)]        0.054 [J/(mol K)]       0.00002050 [mEh/K]
  Total S                  52.684 [cal/(mol K)]      220.428 [J/(mol K)]       0.08395664 [mEh/K]
  Correction S              0.000 [cal/(mol K)]        0.000 [J/(mol K)]       0.00000000 [mEh/K]

  Constant volume heat capacity, Cv
    Electronic Cv           0.000 [cal/(mol K)]        0.000 [J/(mol K)]       0.00000000 [mEh/K]
    Translational Cv        2.981 [cal/(mol K)]       12.472 [J/(mol K)]       0.00475022 [mEh/K]
    Rotational Cv           2.981 [cal/(mol K)]       12.472 [J/(mol K)]       0.00475022 [mEh/K]
    Vibrational Cv          0.090 [cal/(mol K)]        0.376 [J/(mol K)]       0.00014339 [mEh/K]
  Total Cv                  6.052 [cal/(mol K)]       25.320 [J/(mol K)]       0.00964383 [mEh/K]
  Correction Cv             0.000 [cal/(mol K)]        0.000 [J/(mol K)]       0.00000000 [mEh/K]

  Constant pressure heat capacity, Cp
    Electronic Cp           0.000 [cal/(mol K)]        0.000 [J/(mol K)]       0.00000000 [mEh/K]
    Translational Cp        4.968 [cal/(mol K)]       20.786 [J/(mol K)]       0.00791703 [mEh/K]
    Rotational Cp           2.981 [cal/(mol K)]       12.472 [J/(mol K)]       0.00475022 [mEh/K]
    Vibrational Cp          0.090 [cal/(mol K)]        0.376 [J/(mol K)]       0.00014339 [mEh/K]
  Total Cp                  8.039 [cal/(mol K)]       33.634 [J/(mol K)]       0.01281064 [mEh/K]
  Correction Cp             0.000 [cal/(mol K)]        0.000 [J/(mol K)]       0.00000000 [mEh/K]

  ==> Thermochemistry Energy Analysis <==

  Raw electronic energy, E0
  Total E0, Electronic energy at well bottom at 0 [K]                 -130.48202282 [Eh]

  Zero-point energy, ZPE_vib = Sum_i nu_i / 2
    Electronic ZPE          0.000 [kcal/mol]        0.000 [kJ/mol]       0.00000000 [Eh]
    Translational ZPE       0.000 [kcal/mol]        0.000 [kJ/mol]       0.00000000 [Eh]
    Rotational ZPE          0.000 [kcal/mol]        0.000 [kJ/mol]       0.00000000 [Eh]
    Vibrational ZPE         8.987 [kcal/mol]       37.604 [kJ/mol]       0.01432245 [Eh]        3143.415 [cm^-1]
  Correction ZPE            8.987 [kcal/mol]       37.604 [kJ/mol]       0.01432245 [Eh]        3143.415 [cm^-1]
  Total ZPE, Electronic energy at 0 [K]                               -130.46770037 [Eh]

  Thermal Energy, E (includes ZPE)
    Electronic E            0.000 [kcal/mol]        0.000 [kJ/mol]       0.00000000 [Eh]
    Translational E         0.889 [kcal/mol]        3.718 [kJ/mol]       0.00141628 [Eh]
    Rotational E            0.889 [kcal/mol]        3.718 [kJ/mol]       0.00141628 [Eh]
    Vibrational E           8.991 [kcal/mol]       37.618 [kJ/mol]       0.01432787 [Eh]
  Correction E             10.768 [kcal/mol]       45.055 [kJ/mol]       0.01716043 [Eh]
  Total E, Electronic energy at  298.15 [K]                           -130.46486240 [Eh]

  Enthalpy, H_trans = E_trans + k_B * T
    Electronic H            0.000 [kcal/mol]        0.000 [kJ/mol]       0.00000000 [Eh]
    Translational H         1.481 [kcal/mol]        6.197 [kJ/mol]       0.00236046 [Eh]
    Rotational H            0.889 [kcal/mol]        3.718 [kJ/mol]       0.00141628 [Eh]
    Vibrational H           8.991 [kcal/mol]       37.618 [kJ/mol]       0.01432787 [Eh]
  Correction H             11.361 [kcal/mol]       47.534 [kJ/mol]       0.01810461 [Eh]
  Total H, Enthalpy at  298.15 [K]                                    -130.46391821 [Eh]

  Gibbs free energy, G = H - T * S
    Electronic G            0.000 [kcal/mol]        0.000 [kJ/mol]       0.00000000 [Eh]
    Translational G        -9.320 [kcal/mol]      -38.995 [kJ/mol]      -0.01485238 [Eh]
    Rotational G           -4.014 [kcal/mol]      -16.794 [kJ/mol]      -0.00639644 [Eh]
    Vibrational G           8.987 [kcal/mol]       37.602 [kJ/mol]       0.01432176 [Eh]
  Correction G             -4.347 [kcal/mol]      -18.187 [kJ/mol]      -0.00692706 [Eh]
  Total G, Free enthalpy at  298.15 [K]                               -130.48894988 [Eh]

*** Psi4 exiting successfully. Buy a developer a beer!
