                               Psi4 1.3.2 release

  ==> Input File <==

--------------------------------------------------------------------------
memory 144 GB

molecule {
0 1
O 0.0000000000 0.0000000000 0.0000000000
H 0.0000000000 0.0000000000 0.9638997500
Cl 1.6530447720 0.0000000000 -0.3711121967
}

set dynamic_level 1
set basis aug-cc-pV(T+d)Z

optimize("wB97X-V")
frequencies("wB97X-V")
--------------------------------------------------------------------------

    Molecular point group: cs
  Charge       = 0
  Multiplicity = 1
  Basis Set: AUG-CC-PV(T+D)Z
    Blend: AUG-CC-PV(T+D)Z
  Basis Set: (AUG-CC-PV(T+D)Z AUX)
    Blend: AUG-CC-PVTZ-JKFIT
  @DF-RKS Final Energy:  -535.91708281506919
    Total Energy =                       -535.9170828150691932
    Molecular point group: cs
  Basis Set: AUG-CC-PV(T+D)Z
    Blend: AUG-CC-PV(T+D)Z
  Basis Set: (AUG-CC-PV(T+D)Z AUX)
    Blend: AUG-CC-PVTZ-JKFIT
  @DF-RKS Final Energy:  -535.91709694052747
    Total Energy =                       -535.9170969405273581
  Basis Set: AUG-CC-PV(T+D)Z
    Blend: AUG-CC-PV(T+D)Z
  Basis Set: (AUG-CC-PV(T+D)Z AUX)
    Blend: AUG-CC-PVTZ-JKFIT
  @DF-RKS Final Energy:  -535.91706808818162
    Total Energy =                       -535.9170680881816224
  Basis Set: AUG-CC-PV(T+D)Z
    Blend: AUG-CC-PV(T+D)Z
  Basis Set: (AUG-CC-PV(T+D)Z AUX)
    Blend: AUG-CC-PVTZ-JKFIT
  @DF-RKS Final Energy:  -535.91708248488135
    Total Energy =                       -535.9170824848812344
  @DF-RKS Final Energy:  -535.91707367283209
    Total Energy =                       -535.9170736728320890
  @DF-RKS Final Energy:  -535.91707029754991
    Total Energy =                       -535.9170702975500262
  @DF-RKS Final Energy:  -535.91708930664163
    Total Energy =                       -535.9170893066417420
  @DF-RKS Final Energy:  -535.91723275479137
    Total Energy =                       -535.9172327547913710
  @DF-RKS Final Energy:  -535.91723754036514
    Total Energy =                       -535.9172375403650221
  @DF-RKS Final Energy:  -535.91722733677966
    Total Energy =                       -535.9172273367796606
  @DF-RKS Final Energy:  -535.91722667964518
    Total Energy =                       -535.9172266796450685
  @DF-RKS Final Energy:  -535.91722960489801
    Total Energy =                       -535.9172296048980115
  @DF-RKS Final Energy:  -535.91722899618401
    Total Energy =                       -535.9172289961840079
  @DF-RKS Final Energy:  -535.91723040205977
    Total Energy =                       -535.9172304020597721
  @DF-RKS Final Energy:  -535.91725318011049
    Total Energy =                       -535.9172531801103787
  @DF-RKS Final Energy:  -535.91725265063280
    Total Energy =                       -535.9172526506328040
  @DF-RKS Final Energy:  -535.91725305450143
    Total Energy =                       -535.9172530545014297
  @DF-RKS Final Energy:  -535.91724819488797
    Total Energy =                       -535.9172481948879749
  @DF-RKS Final Energy:  -535.91724899473365
    Total Energy =                       -535.9172489947337681
  @DF-RKS Final Energy:  -535.91725015126644
    Total Energy =                       -535.9172501512664439
  **** Optimization is complete! (in 3 steps) ****
    Final optimized geometry and variables:
  @DF-RKS Final Energy:  -535.91725318011027
    Total Energy =                       -535.9172531801103787
  @DF-RKS Final Energy:  -535.91725265063292
    Total Energy =                       -535.9172526506328040
  @DF-RKS Final Energy:  -535.91725305492719
    Total Energy =                       -535.9172530549271869
  @DF-RKS Final Energy:  -535.91724819606065
    Total Energy =                       -535.9172481960606547
  @DF-RKS Final Energy:  -535.91724899442238
    Total Energy =                       -535.9172489944223798
  @DF-RKS Final Energy:  -535.91725015057887
    Total Energy =                       -535.9172501505788659
  @DF-RKS Final Energy:  -535.91725002272676
    Total Energy =                       -535.9172500227266482
  @DF-RKS Final Energy:  -535.91725318011061
    Total Energy =                       -535.9172531801106061
  @DF-RKS Final Energy:  -535.91725265063292
    Total Energy =                       -535.9172526506328040
  @DF-RKS Final Energy:  -535.91725305492707
    Total Energy =                       -535.9172530549271869
  @DF-RKS Final Energy:  -535.91724819606077
    Total Energy =                       -535.9172481960606547
  @DF-RKS Final Energy:  -535.91724899442238
    Total Energy =                       -535.9172489944223798
  @DF-RKS Final Energy:  -535.91725015057875
    Total Energy =                       -535.9172501505786386
  @DF-RKS Final Energy:  -535.91725002272710
    Total Energy =                       -535.9172500227269893
  @DF-RKS Final Energy:  -535.91724884330176
    Total Energy =                       -535.9172488433016497
  @DF-RKS Final Energy:  -535.91724764793037
    Total Energy =                       -535.9172476479303668
  Basis Set: AUG-CC-PV(T+D)Z
    Blend: AUG-CC-PV(T+D)Z
  Basis Set: (AUG-CC-PV(T+D)Z AUX)
    Blend: AUG-CC-PVTZ-JKFIT
  @DF-RKS Final Energy:  -535.91725014870087
    Total Energy =                       -535.9172501487007594
  Basis Set: AUG-CC-PV(T+D)Z
    Blend: AUG-CC-PV(T+D)Z
  Basis Set: (AUG-CC-PV(T+D)Z AUX)
    Blend: AUG-CC-PVTZ-JKFIT
  @DF-RKS Final Energy:  -535.91724986472957
    Total Energy =                       -535.9172498647295697
  Multiplicity = 1
  Basis Set: AUG-CC-PV(T+D)Z
    Blend: AUG-CC-PV(T+D)Z
  Basis Set: (AUG-CC-PV(T+D)Z AUX)
    Blend: AUG-CC-PVTZ-JKFIT
  @DF-RKS Final Energy:  -535.91725182004620
    Total Energy =                       -535.9172518200463173
    Molecular point group: cs

    Geometry (in Angstrom), charge = 0, multiplicity = 1:

       Center              X                  Y                   Z               Mass
    ------------   -----------------  -----------------  -----------------  -----------------
         O            1.098931240514     0.232209376124     0.000000000000    15.994914619570
         H            1.113659135735     1.197928893514     0.000000000000     1.007825032230
         CL          -0.534752600814    -0.140738728704     0.000000000000    34.968852682000

  Charge       = 0
  Multiplicity = 1
  Basis Set: AUG-CC-PV(T+D)Z
    Blend: AUG-CC-PV(T+D)Z
  Basis Set: (AUG-CC-PV(T+D)Z AUX)
    Blend: AUG-CC-PVTZ-JKFIT

    Orbital Energies [Eh]
    ---------------------

    Doubly Occupied:

       1Ap  -101.598036     2Ap   -19.294135     3Ap    -9.609427
       4Ap    -7.370022     5Ap    -7.354513     1App   -7.354153
       6Ap    -1.213107     7Ap    -0.928889     8Ap    -0.652520
       9Ap    -0.559923     2App   -0.534762    10Ap    -0.427147
       3App   -0.393028

  @DF-RKS Final Energy:  -535.91725111312621

   => Energetics <=

    Nuclear Repulsion Energy =             51.5673276897834327
    One-Electron Energy =                -841.6031477375277063
    Two-Electron Energy =                 281.6786021730786729
    DFT Exchange-Correlation Energy =     -27.6687214050025005
    Empirical Dispersion Energy =           0.0000000000000000
    VV10 Nonlocal Energy =                  0.1086881665418624
    Total Energy =                       -535.9172511131263263

  Dipole Moment: [D]
     X:     0.0042      Y:     1.5465      Z:     0.0000     Total:     1.5465

  Vibration                       7                   8                   9
  Freq [cm^-1]                 807.2370           1286.5066           3823.2156
  Irrep                           Ap                  Ap                  Ap
  Reduced mass [u]             17.4785              1.0741              1.0678
  Force const [mDyne/A]         6.7105              1.0475              9.1959

  ==> Thermochemistry Components <==

  Entropy, S
    Electronic S            0.000 [cal/(mol K)]        0.000 [J/(mol K)]       0.00000000 [mEh/K] (multiplicity = 1)
    Translational S        37.767 [cal/(mol K)]      158.018 [J/(mol K)]       0.06018576 [mEh/K] (mol. weight = 51.9716 [u], P = 101325.00 [Pa])
    Rotational S           18.354 [cal/(mol K)]       76.791 [J/(mol K)]       0.02924829 [mEh/K] (symmetry no. = 1)
    Vibrational S           0.230 [cal/(mol K)]        0.964 [J/(mol K)]       0.00036714 [mEh/K]
  Total S                  56.351 [cal/(mol K)]      235.773 [J/(mol K)]       0.08980119 [mEh/K]
  Correction S              0.000 [cal/(mol K)]        0.000 [J/(mol K)]       0.00000000 [mEh/K]

  Constant volume heat capacity, Cv
    Electronic Cv           0.000 [cal/(mol K)]        0.000 [J/(mol K)]       0.00000000 [mEh/K]
    Translational Cv        2.981 [cal/(mol K)]       12.472 [J/(mol K)]       0.00475022 [mEh/K]
    Rotational Cv           2.981 [cal/(mol K)]       12.472 [J/(mol K)]       0.00475022 [mEh/K]
    Vibrational Cv          0.794 [cal/(mol K)]        3.321 [J/(mol K)]       0.00126480 [mEh/K]
  Total Cv                  6.755 [cal/(mol K)]       28.264 [J/(mol K)]       0.01076523 [mEh/K]
  Correction Cv             0.000 [cal/(mol K)]        0.000 [J/(mol K)]       0.00000000 [mEh/K]

  Constant pressure heat capacity, Cp
    Electronic Cp           0.000 [cal/(mol K)]        0.000 [J/(mol K)]       0.00000000 [mEh/K]
    Translational Cp        4.968 [cal/(mol K)]       20.786 [J/(mol K)]       0.00791703 [mEh/K]
    Rotational Cp           2.981 [cal/(mol K)]       12.472 [J/(mol K)]       0.00475022 [mEh/K]
    Vibrational Cp          0.794 [cal/(mol K)]        3.321 [J/(mol K)]       0.00126480 [mEh/K]
  Total Cp                  8.742 [cal/(mol K)]       36.579 [J/(mol K)]       0.01393204 [mEh/K]
  Correction Cp             0.000 [cal/(mol K)]        0.000 [J/(mol K)]       0.00000000 [mEh/K]

  ==> Thermochemistry Energy Analysis <==

  Raw electronic energy, E0
  Total E0, Electronic energy at well bottom at 0 [K]                 -535.91725318 [Eh]

  Zero-point energy, ZPE_vib = Sum_i nu_i / 2
    Electronic ZPE          0.000 [kcal/mol]        0.000 [kJ/mol]       0.00000000 [Eh]
    Translational ZPE       0.000 [kcal/mol]        0.000 [kJ/mol]       0.00000000 [Eh]
    Rotational ZPE          0.000 [kcal/mol]        0.000 [kJ/mol]       0.00000000 [Eh]
    Vibrational ZPE         8.459 [kcal/mol]       35.391 [kJ/mol]       0.01347982 [Eh]        2958.480 [cm^-1]
  Correction ZPE            8.459 [kcal/mol]       35.391 [kJ/mol]       0.01347982 [Eh]        2958.480 [cm^-1]
  Total ZPE, Electronic energy at 0 [K]                               -535.90377336 [Eh]

  Thermal Energy, E (includes ZPE)
    Electronic E            0.000 [kcal/mol]        0.000 [kJ/mol]       0.00000000 [Eh]
    Translational E         0.889 [kcal/mol]        3.718 [kJ/mol]       0.00141628 [Eh]
    Rotational E            0.889 [kcal/mol]        3.718 [kJ/mol]       0.00141628 [Eh]
    Vibrational E           8.514 [kcal/mol]       35.623 [kJ/mol]       0.01356799 [Eh]
  Correction E             10.291 [kcal/mol]       43.060 [kJ/mol]       0.01640054 [Eh]
  Total E, Electronic energy at  298.15 [K]                           -535.90085264 [Eh]

  Enthalpy, H_trans = E_trans + k_B * T
    Electronic H            0.000 [kcal/mol]        0.000 [kJ/mol]       0.00000000 [Eh]
    Translational H         1.481 [kcal/mol]        6.197 [kJ/mol]       0.00236046 [Eh]
    Rotational H            0.889 [kcal/mol]        3.718 [kJ/mol]       0.00141628 [Eh]
    Vibrational H           8.514 [kcal/mol]       35.623 [kJ/mol]       0.01356799 [Eh]
  Correction H             10.884 [kcal/mol]       45.539 [kJ/mol]       0.01734473 [Eh]
  Total H, Enthalpy at  298.15 [K]                                    -535.89990845 [Eh]

  Gibbs free energy, G = H - T * S
    Electronic G            0.000 [kcal/mol]        0.000 [kJ/mol]       0.00000000 [Eh]
    Translational G        -9.779 [kcal/mol]      -40.916 [kJ/mol]      -0.01558392 [Eh]
    Rotational G           -4.583 [kcal/mol]      -19.177 [kJ/mol]      -0.00730410 [Eh]
    Vibrational G           8.445 [kcal/mol]       35.335 [kJ/mol]       0.01345853 [Eh]
  Correction G             -5.917 [kcal/mol]      -24.757 [kJ/mol]      -0.00942950 [Eh]
  Total G, Free enthalpy at  298.15 [K]                               -535.92668268 [Eh]

*** Psi4 exiting successfully. Buy a developer a beer!
