                               Psi4 1.3.2 release

  ==> Input File <==

--------------------------------------------------------------------------
memory 144 GB

molecule {
0 1
N 0.0000000000 0.0000000000 0.0000000000
N 0.0000000000 0.0000000000 1.1003000000
}

set dynamic_level 1
set basis aug-cc-pV(T+d)Z

optimize("wB97X-V")
frequencies("wB97X-V")
--------------------------------------------------------------------------

    Molecular point group: d2h
  Charge       = 0
  Multiplicity = 1
  Basis Set: AUG-CC-PV(T+D)Z
    Blend: AUG-CC-PV(T+D)Z
  Basis Set: (AUG-CC-PV(T+D)Z AUX)
    Blend: AUG-CC-PVTZ-JKFIT
  @DF-RKS Final Energy:  -109.53643210534703
    Total Energy =                       -109.5364321053470320
    Molecular point group: d2h
  Basis Set: AUG-CC-PV(T+D)Z
    Blend: AUG-CC-PV(T+D)Z
  Basis Set: (AUG-CC-PV(T+D)Z AUX)
    Blend: AUG-CC-PVTZ-JKFIT
  @DF-RKS Final Energy:  -109.53637821009931
    Total Energy =                       -109.5363782100993006
  Basis Set: AUG-CC-PV(T+D)Z
    Blend: AUG-CC-PV(T+D)Z
  Basis Set: (AUG-CC-PV(T+D)Z AUX)
    Blend: AUG-CC-PVTZ-JKFIT
  @DF-RKS Final Energy:  -109.53648049948195
    Total Energy =                       -109.5364804994819536
  Basis Set: AUG-CC-PV(T+D)Z
    Blend: AUG-CC-PV(T+D)Z
  Basis Set: (AUG-CC-PV(T+D)Z AUX)
    Blend: AUG-CC-PVTZ-JKFIT
  @DF-RKS Final Energy:  -109.53666263907459
    Total Energy =                       -109.5366626390745921
  @DF-RKS Final Energy:  -109.53665451718828
    Total Energy =                       -109.5366545171882677
  @DF-RKS Final Energy:  -109.53666493799585
    Total Energy =                       -109.5366649379958375
  @DF-RKS Final Energy:  -109.53666497020255
    Total Energy =                       -109.5366649702025512
  @DF-RKS Final Energy:  -109.53666220520417
    Total Energy =                       -109.5366622052041663
  @DF-RKS Final Energy:  -109.53666187673682
    Total Energy =                       -109.5366618767368152
  **** Optimization is complete! (in 3 steps) ****
    Final optimized geometry and variables:
  @DF-RKS Final Energy:  -109.53666497020248
    Total Energy =                       -109.5366649702024802
  @DF-RKS Final Energy:  -109.53666220520408
    Total Energy =                       -109.5366622052040952
  Basis Set: AUG-CC-PV(T+D)Z
    Blend: AUG-CC-PV(T+D)Z
  Basis Set: (AUG-CC-PV(T+D)Z AUX)
    Blend: AUG-CC-PVTZ-JKFIT
  @DF-RKS Final Energy:  -109.53666187673684
    Total Energy =                       -109.5366618767368436
  Basis Set: AUG-CC-PV(T+D)Z
    Blend: AUG-CC-PV(T+D)Z
  Basis Set: (AUG-CC-PV(T+D)Z AUX)
    Blend: AUG-CC-PVTZ-JKFIT
  @DF-RKS Final Energy:  -109.53666497020249
    Total Energy =                       -109.5366649702025086
  Multiplicity = 1
  Basis Set: AUG-CC-PV(T+D)Z
    Blend: AUG-CC-PV(T+D)Z
  Basis Set: (AUG-CC-PV(T+D)Z AUX)
    Blend: AUG-CC-PVTZ-JKFIT
  @DF-RKS Final Energy:  -109.53666220520412
    Total Energy =                       -109.5366622052041237
    Molecular point group: d2h

    Geometry (in Angstrom), charge = 0, multiplicity = 1:

       Center              X                  Y                   Z               Mass
    ------------   -----------------  -----------------  -----------------  -----------------
         N            0.000000000000     0.000000000000    -0.545131284103    14.003074004430
         N            0.000000000000     0.000000000000     0.545131284103    14.003074004430

  Charge       = 0
  Multiplicity = 1
  Basis Set: AUG-CC-PV(T+D)Z
    Blend: AUG-CC-PV(T+D)Z
  Basis Set: (AUG-CC-PV(T+D)Z AUX)
    Blend: AUG-CC-PVTZ-JKFIT

    Orbital Energies [Eh]
    ---------------------

    Doubly Occupied:

       1Ag   -14.514515     1B1u  -14.512654     2Ag    -1.262068
       2B1u   -0.673561     1B2u   -0.581766     1B3u   -0.581766
       3Ag    -0.547638

  @DF-RKS Final Energy:  -109.53666187673687

   => Energetics <=

    Nuclear Repulsion Energy =             23.7829712575695531
    One-Electron Energy =                -194.7767815060915666
    Two-Electron Energy =                  71.0884084449765083
    DFT Exchange-Correlation Energy =      -9.6901957492583755
    Empirical Dispersion Energy =           0.0000000000000000
    VV10 Nonlocal Energy =                  0.0589356760670041
    Total Energy =                       -109.5366618767368720

  Dipole Moment: [D]
     X:     0.0000      Y:     0.0000      Z:     0.0000     Total:     0.0000

  Vibration                       6
  Freq [cm^-1]                2488.4342
  Irrep                           Ag
  Reduced mass [u]             14.0031
  Force const [mDyne/A]        51.0888

  ==> Thermochemistry Components <==

  Entropy, S
    Electronic S            0.000 [cal/(mol K)]        0.000 [J/(mol K)]       0.00000000 [mEh/K] (multiplicity = 1)
    Translational S        35.924 [cal/(mol K)]      150.307 [J/(mol K)]       0.05724883 [mEh/K] (mol. weight = 28.0061 [u], P = 101325.00 [Pa])
    Rotational S            9.810 [cal/(mol K)]       41.046 [J/(mol K)]       0.01563344 [mEh/K] (symmetry no. = 2)
    Vibrational S           0.000 [cal/(mol K)]        0.001 [J/(mol K)]       0.00000025 [mEh/K]
  Total S                  45.734 [cal/(mol K)]      191.353 [J/(mol K)]       0.07288252 [mEh/K]
  Correction S              0.000 [cal/(mol K)]        0.000 [J/(mol K)]       0.00000000 [mEh/K]

  Constant volume heat capacity, Cv
    Electronic Cv           0.000 [cal/(mol K)]        0.000 [J/(mol K)]       0.00000000 [mEh/K]
    Translational Cv        2.981 [cal/(mol K)]       12.472 [J/(mol K)]       0.00475022 [mEh/K]
    Rotational Cv           1.987 [cal/(mol K)]        8.314 [J/(mol K)]       0.00316681 [mEh/K]
    Vibrational Cv          0.002 [cal/(mol K)]        0.007 [J/(mol K)]       0.00000278 [mEh/K]
  Total Cv                  4.970 [cal/(mol K)]       20.793 [J/(mol K)]       0.00791981 [mEh/K]
  Correction Cv             0.000 [cal/(mol K)]        0.000 [J/(mol K)]       0.00000000 [mEh/K]

  Constant pressure heat capacity, Cp
    Electronic Cp           0.000 [cal/(mol K)]        0.000 [J/(mol K)]       0.00000000 [mEh/K]
    Translational Cp        4.968 [cal/(mol K)]       20.786 [J/(mol K)]       0.00791703 [mEh/K]
    Rotational Cp           1.987 [cal/(mol K)]        8.314 [J/(mol K)]       0.00316681 [mEh/K]
    Vibrational Cp          0.002 [cal/(mol K)]        0.007 [J/(mol K)]       0.00000278 [mEh/K]
  Total Cp                  6.957 [cal/(mol K)]       29.108 [J/(mol K)]       0.01108662 [mEh/K]
  Correction Cp             0.000 [cal/(mol K)]        0.000 [J/(mol K)]       0.00000000 [mEh/K]

  ==> Thermochemistry Energy Analysis <==

  Raw electronic energy, E0
  Total E0, Electronic energy at well bottom at 0 [K]                 -109.53666497 [Eh]

  Zero-point energy, ZPE_vib = Sum_i nu_i / 2
    Electronic ZPE          0.000 [kcal/mol]        0.000 [kJ/mol]       0.00000000 [Eh]
    Translational ZPE       0.000 [kcal/mol]        0.000 [kJ/mol]       0.00000000 [Eh]
    Rotational ZPE          0.000 [kcal/mol]        0.000 [kJ/mol]       0.00000000 [Eh]
    Vibrational ZPE         3.557 [kcal/mol]       14.884 [kJ/mol]       0.00566907 [Eh]        1244.217 [cm^-1]
  Correction ZPE            3.557 [kcal/mol]       14.884 [kJ/mol]       0.00566907 [Eh]        1244.217 [cm^-1]
  Total ZPE, Electronic energy at 0 [K]                               -109.53099590 [Eh]

  Thermal Energy, E (includes ZPE)
    Electronic E            0.000 [kcal/mol]        0.000 [kJ/mol]       0.00000000 [Eh]
    Translational E         0.889 [kcal/mol]        3.718 [kJ/mol]       0.00141628 [Eh]
    Rotational E            0.592 [kcal/mol]        2.479 [kJ/mol]       0.00094418 [Eh]
    Vibrational E           3.557 [kcal/mol]       14.884 [kJ/mol]       0.00566914 [Eh]
  Correction E              5.039 [kcal/mol]       21.082 [kJ/mol]       0.00802960 [Eh]
  Total E, Electronic energy at  298.15 [K]                           -109.52863537 [Eh]

  Enthalpy, H_trans = E_trans + k_B * T
    Electronic H            0.000 [kcal/mol]        0.000 [kJ/mol]       0.00000000 [Eh]
    Translational H         1.481 [kcal/mol]        6.197 [kJ/mol]       0.00236046 [Eh]
    Rotational H            0.592 [kcal/mol]        2.479 [kJ/mol]       0.00094418 [Eh]
    Vibrational H           3.557 [kcal/mol]       14.884 [kJ/mol]       0.00566914 [Eh]
  Correction H              5.631 [kcal/mol]       23.561 [kJ/mol]       0.00897379 [Eh]
  Total H, Enthalpy at  298.15 [K]                                    -109.52769119 [Eh]

  Gibbs free energy, G = H - T * S
    Electronic G            0.000 [kcal/mol]        0.000 [kJ/mol]       0.00000000 [Eh]
    Translational G        -9.230 [kcal/mol]      -38.617 [kJ/mol]      -0.01470828 [Eh]
    Rotational G           -2.332 [kcal/mol]       -9.759 [kJ/mol]      -0.00371693 [Eh]
    Vibrational G           3.557 [kcal/mol]       14.884 [kJ/mol]       0.00566906 [Eh]
  Correction G             -8.005 [kcal/mol]      -33.491 [kJ/mol]      -0.01275614 [Eh]
  Total G, Free enthalpy at  298.15 [K]                               -109.54942111 [Eh]

*** Psi4 exiting successfully. Buy a developer a beer!
