                               Psi4 1.3.2 release

  ==> Input File <==

--------------------------------------------------------------------------
memory 144 GB

molecule {
0 1
N 0.0000000000 0.0000000000 0.0000000000
H 0.0000000000 0.0000000000 1.0124000000
H 0.9722998620 0.0000000000 -0.2821112163
H -0.3756003142 0.8968229622 -0.2821112163
}

set dynamic_level 1
set basis aug-cc-pV(T+d)Z

optimize("wB97X-V")
frequencies("wB97X-V")
--------------------------------------------------------------------------

    Molecular point group: cs
  Charge       = 0
  Multiplicity = 1
  Basis Set: AUG-CC-PV(T+D)Z
    Blend: AUG-CC-PV(T+D)Z
  Basis Set: (AUG-CC-PV(T+D)Z AUX)
    Blend: AUG-CC-PVTZ-JKFIT
  @DF-RKS Final Energy:   -56.56217887992380
    Total Energy =                        -56.5621788799237990
    Molecular point group: cs
  Basis Set: AUG-CC-PV(T+D)Z
    Blend: AUG-CC-PV(T+D)Z
  Basis Set: (AUG-CC-PV(T+D)Z AUX)
    Blend: AUG-CC-PVTZ-JKFIT
  @DF-RKS Final Energy:   -56.56217266942555
    Total Energy =                        -56.5621726694255500
  Basis Set: AUG-CC-PV(T+D)Z
    Blend: AUG-CC-PV(T+D)Z
  Basis Set: (AUG-CC-PV(T+D)Z AUX)
    Blend: AUG-CC-PVTZ-JKFIT
  @DF-RKS Final Energy:   -56.56217956406297
    Total Energy =                        -56.5621795640629657
  Basis Set: AUG-CC-PV(T+D)Z
    Blend: AUG-CC-PV(T+D)Z
  Basis Set: (AUG-CC-PV(T+D)Z AUX)
    Blend: AUG-CC-PVTZ-JKFIT
  @DF-RKS Final Energy:   -56.56217260528025
    Total Energy =                        -56.5621726052802529
  @DF-RKS Final Energy:   -56.56217998355260
    Total Energy =                        -56.5621799835525891
  @DF-RKS Final Energy:   -56.56216218849527
    Total Energy =                        -56.5621621884952717
  @DF-RKS Final Energy:   -56.56218692685422
    Total Energy =                        -56.5621869268542170
  @DF-RKS Final Energy:   -56.56216218192536
    Total Energy =                        -56.5621621819253519
  @DF-RKS Final Energy:   -56.56218693241367
    Total Energy =                        -56.5621869324136739
  @DF-RKS Final Energy:   -56.56223626321763
    Total Energy =                        -56.5622362632176348
  @DF-RKS Final Energy:   -56.56223018798034
    Total Energy =                        -56.5622301879803402
  @DF-RKS Final Energy:   -56.56223690549059
    Total Energy =                        -56.5622369054905931
  @DF-RKS Final Energy:   -56.56223016096192
    Total Energy =                        -56.5622301609619171
  @DF-RKS Final Energy:   -56.56223733364924
    Total Energy =                        -56.5622373336492501
  @DF-RKS Final Energy:   -56.56223594235200
    Total Energy =                        -56.5622359423519896
  @DF-RKS Final Energy:   -56.56222799492462
    Total Energy =                        -56.5622279949246192
  @DF-RKS Final Energy:   -56.56223594548852
    Total Energy =                        -56.5622359454885313
  @DF-RKS Final Energy:   -56.56222799236858
    Total Energy =                        -56.5622279923685767
  @DF-RKS Final Energy:   -56.56224169346275
    Total Energy =                        -56.5622416934627594
  @DF-RKS Final Energy:   -56.56223804341549
    Total Energy =                        -56.5622380434154906
  **** Optimization is complete! (in 3 steps) ****
    Final optimized geometry and variables:
  @DF-RKS Final Energy:   -56.56223883269172
    Total Energy =                        -56.5622388326917189
  @DF-RKS Final Energy:   -56.56223591561697
    Total Energy =                        -56.5622359156169594
  @DF-RKS Final Energy:   -56.56223883323872
    Total Energy =                        -56.5622388332387231
  @DF-RKS Final Energy:   -56.56223591496853
    Total Energy =                        -56.5622359149685323
  @DF-RKS Final Energy:   -56.56224147071126
    Total Energy =                        -56.5622414707112640
  @DF-RKS Final Energy:   -56.56223759397587
    Total Energy =                        -56.5622375939758655
  @DF-RKS Final Energy:   -56.56223323652153
    Total Energy =                        -56.5622332365215286
  @DF-RKS Final Energy:   -56.56223424160392
    Total Energy =                        -56.5622342416039317
  @DF-RKS Final Energy:   -56.56223843829570
    Total Energy =                        -56.5622384382957009
  @DF-RKS Final Energy:   -56.56223938685199
    Total Energy =                        -56.5622393868519850
  @DF-RKS Final Energy:   -56.56223821910120
    Total Energy =                        -56.5622382191011965
  @DF-RKS Final Energy:   -56.56223929615973
    Total Energy =                        -56.5622392961597384
  @DF-RKS Final Energy:   -56.56223376179503
    Total Energy =                        -56.5622337617950279
  @DF-RKS Final Energy:   -56.56223469036156
    Total Energy =                        -56.5622346903615636
  @DF-RKS Final Energy:   -56.56222829804099
    Total Energy =                        -56.5622282980409921
  @DF-RKS Final Energy:   -56.56223409917581
    Total Energy =                        -56.5622340991758108
  Basis Set: AUG-CC-PV(T+D)Z
    Blend: AUG-CC-PV(T+D)Z
  Basis Set: (AUG-CC-PV(T+D)Z AUX)
    Blend: AUG-CC-PVTZ-JKFIT
  @DF-RKS Final Energy:   -56.56223753824221
    Total Energy =                        -56.5622375382422078
  Basis Set: AUG-CC-PV(T+D)Z
    Blend: AUG-CC-PV(T+D)Z
  Basis Set: (AUG-CC-PV(T+D)Z AUX)
    Blend: AUG-CC-PVTZ-JKFIT
  @DF-RKS Final Energy:   -56.56223874087260
    Total Energy =                        -56.5622387408726084
  Multiplicity = 1
  Basis Set: AUG-CC-PV(T+D)Z
    Blend: AUG-CC-PV(T+D)Z
  Basis Set: (AUG-CC-PV(T+D)Z AUX)
    Blend: AUG-CC-PVTZ-JKFIT
  @DF-RKS Final Energy:   -56.56223944115580
    Total Energy =                        -56.5622394411558034
    Molecular point group: c1

    Geometry (in Angstrom), charge = 0, multiplicity = 1:

       Center              X                  Y                   Z               Mass
    ------------   -----------------  -----------------  -----------------  -----------------
         N           -0.042538895150    -0.051118973754    -0.000265424533    14.003074004430
         H            0.558495671811    -0.062937134297     0.816036624317     1.007825032230
         H            0.559438380469    -0.065924698974    -0.815099688116     1.007825032230
         H           -0.526883743140     0.839126759839     0.002750965227     1.007825032230

  Charge       = 0
  Multiplicity = 1
  Basis Set: AUG-CC-PV(T+D)Z
    Blend: AUG-CC-PV(T+D)Z
  Basis Set: (AUG-CC-PV(T+D)Z AUX)
    Blend: AUG-CC-PVTZ-JKFIT

    Orbital Energies [Eh]
    ---------------------

    Doubly Occupied:

       1A    -14.389887     2A     -0.982277     3A     -0.572809
       4A     -0.571654     5A     -0.377712

  @DF-RKS Final Energy:   -56.56223944088639

   => Energetics <=

    Nuclear Repulsion Energy =             11.9381906321607740
    One-Electron Energy =                 -99.6187225679217647
    Two-Electron Energy =                  36.5396417989297788
    DFT Exchange-Correlation Energy =      -5.4631898020349157
    Empirical Dispersion Energy =           0.0000000000000000
    VV10 Nonlocal Energy =                  0.0418404979797492
    Total Energy =                        -56.5622394408863869

  Dipole Moment: [D]
     X:     0.9823      Y:     1.1805      Z:     0.0024     Total:     1.5357

  Vibration                       7                   8                   9
  Freq [cm^-1]                1031.3734           1491.8818           1666.7396
  Irrep                           Ap                 App                  Ap
  Reduced mass [u]              1.1815              1.0605              1.0668
  Force const [mDyne/A]         0.7405              1.3907              1.7461

  Vibration                       10                  11                  12
  Freq [cm^-1]                3507.9767           3577.7057           3628.6649
  Irrep                           Ap                 App                  Ap
  Reduced mass [u]              1.0261              1.0968              1.0901
  Force const [mDyne/A]         7.4394              8.2714              8.4571

  ==> Thermochemistry Components <==

  Entropy, S
    Electronic S            0.000 [cal/(mol K)]        0.000 [J/(mol K)]       0.00000000 [mEh/K] (multiplicity = 1)
    Translational S        34.441 [cal/(mol K)]      144.100 [J/(mol K)]       0.05488488 [mEh/K] (mol. weight = 17.0265 [u], P = 101325.00 [Pa])
    Rotational S           13.619 [cal/(mol K)]       56.983 [J/(mol K)]       0.02170364 [mEh/K] (symmetry no. = 1)
    Vibrational S           0.100 [cal/(mol K)]        0.420 [J/(mol K)]       0.00015995 [mEh/K]
  Total S                  48.160 [cal/(mol K)]      201.503 [J/(mol K)]       0.07674847 [mEh/K]
  Correction S              0.000 [cal/(mol K)]        0.000 [J/(mol K)]       0.00000000 [mEh/K]

  Constant volume heat capacity, Cv
    Electronic Cv           0.000 [cal/(mol K)]        0.000 [J/(mol K)]       0.00000000 [mEh/K]
    Translational Cv        2.981 [cal/(mol K)]       12.472 [J/(mol K)]       0.00475022 [mEh/K]
    Rotational Cv           2.981 [cal/(mol K)]       12.472 [J/(mol K)]       0.00475022 [mEh/K]
    Vibrational Cv          0.463 [cal/(mol K)]        1.935 [J/(mol K)]       0.00073712 [mEh/K]
  Total Cv                  6.424 [cal/(mol K)]       26.879 [J/(mol K)]       0.01023755 [mEh/K]
  Correction Cv             0.000 [cal/(mol K)]        0.000 [J/(mol K)]       0.00000000 [mEh/K]

  Constant pressure heat capacity, Cp
    Electronic Cp           0.000 [cal/(mol K)]        0.000 [J/(mol K)]       0.00000000 [mEh/K]
    Translational Cp        4.968 [cal/(mol K)]       20.786 [J/(mol K)]       0.00791703 [mEh/K]
    Rotational Cp           2.981 [cal/(mol K)]       12.472 [J/(mol K)]       0.00475022 [mEh/K]
    Vibrational Cp          0.463 [cal/(mol K)]        1.935 [J/(mol K)]       0.00073712 [mEh/K]
  Total Cp                  8.411 [cal/(mol K)]       35.193 [J/(mol K)]       0.01340436 [mEh/K]
  Correction Cp             0.000 [cal/(mol K)]        0.000 [J/(mol K)]       0.00000000 [mEh/K]

  ==> Thermochemistry Energy Analysis <==

  Raw electronic energy, E0
  Total E0, Electronic energy at well bottom at 0 [K]                  -56.56224169 [Eh]

  Zero-point energy, ZPE_vib = Sum_i nu_i / 2
    Electronic ZPE          0.000 [kcal/mol]        0.000 [kJ/mol]       0.00000000 [Eh]
    Translational ZPE       0.000 [kcal/mol]        0.000 [kJ/mol]       0.00000000 [Eh]
    Rotational ZPE          0.000 [kcal/mol]        0.000 [kJ/mol]       0.00000000 [Eh]
    Vibrational ZPE        21.307 [kcal/mol]       89.148 [kJ/mol]       0.03395459 [Eh]        7452.171 [cm^-1]
  Correction ZPE           21.307 [kcal/mol]       89.148 [kJ/mol]       0.03395459 [Eh]        7452.171 [cm^-1]
  Total ZPE, Electronic energy at 0 [K]                                -56.52828710 [Eh]

  Thermal Energy, E (includes ZPE)
    Electronic E            0.000 [kcal/mol]        0.000 [kJ/mol]       0.00000000 [Eh]
    Translational E         0.889 [kcal/mol]        3.718 [kJ/mol]       0.00141628 [Eh]
    Rotational E            0.889 [kcal/mol]        3.718 [kJ/mol]       0.00141628 [Eh]
    Vibrational E          21.332 [kcal/mol]       89.253 [kJ/mol]       0.03399474 [Eh]
  Correction E             23.109 [kcal/mol]       96.690 [kJ/mol]       0.03682729 [Eh]
  Total E, Electronic energy at  298.15 [K]                            -56.52541440 [Eh]

  Enthalpy, H_trans = E_trans + k_B * T
    Electronic H            0.000 [kcal/mol]        0.000 [kJ/mol]       0.00000000 [Eh]
    Translational H         1.481 [kcal/mol]        6.197 [kJ/mol]       0.00236046 [Eh]
    Rotational H            0.889 [kcal/mol]        3.718 [kJ/mol]       0.00141628 [Eh]
    Vibrational H          21.332 [kcal/mol]       89.253 [kJ/mol]       0.03399474 [Eh]
  Correction H             23.702 [kcal/mol]       99.169 [kJ/mol]       0.03777147 [Eh]
  Total H, Enthalpy at  298.15 [K]                                     -56.52447022 [Eh]

  Gibbs free energy, G = H - T * S
    Electronic G            0.000 [kcal/mol]        0.000 [kJ/mol]       0.00000000 [Eh]
    Translational G        -8.787 [kcal/mol]      -36.766 [kJ/mol]      -0.01400347 [Eh]
    Rotational G           -3.172 [kcal/mol]      -13.271 [kJ/mol]      -0.00505466 [Eh]
    Vibrational G          21.302 [kcal/mol]       89.128 [kJ/mol]       0.03394705 [Eh]
  Correction G              9.343 [kcal/mol]       39.091 [kJ/mol]       0.01488892 [Eh]
  Total G, Free enthalpy at  298.15 [K]                                -56.54735277 [Eh]

*** Psi4 exiting successfully. Buy a developer a beer!
