                               Psi4 1.3.2 release

  ==> Input File <==

--------------------------------------------------------------------------
memory 144 GB

molecule {
0 1
N 0.0000000000 0.0000000000 0.0000000000
N 0.0000000000 0.0000000000 1.1291000000
O 0.0000000000 -0.0000000000 2.3161000000
}

set dynamic_level 1
set basis aug-cc-pV(T+d)Z

optimize("wB97X-V")
frequencies("wB97X-V")
--------------------------------------------------------------------------

    Molecular point group: c2v
  Charge       = 0
  Multiplicity = 1
  Basis Set: AUG-CC-PV(T+D)Z
    Blend: AUG-CC-PV(T+D)Z
  Basis Set: (AUG-CC-PV(T+D)Z AUX)
    Blend: AUG-CC-PVTZ-JKFIT
  @DF-RKS Final Energy:  -184.67218724085828
    Total Energy =                       -184.6721872408582783
    Molecular point group: c2v
  Basis Set: AUG-CC-PV(T+D)Z
    Blend: AUG-CC-PV(T+D)Z
  Basis Set: (AUG-CC-PV(T+D)Z AUX)
    Blend: AUG-CC-PVTZ-JKFIT
  @DF-RKS Final Energy:  -184.67213414609955
    Total Energy =                       -184.6721341460995518
  Basis Set: AUG-CC-PV(T+D)Z
    Blend: AUG-CC-PV(T+D)Z
  Basis Set: (AUG-CC-PV(T+D)Z AUX)
    Blend: AUG-CC-PVTZ-JKFIT
  @DF-RKS Final Energy:  -184.67223712162672
    Total Energy =                       -184.6722371216267220
  Basis Set: AUG-CC-PV(T+D)Z
    Blend: AUG-CC-PV(T+D)Z
  Basis Set: (AUG-CC-PV(T+D)Z AUX)
    Blend: AUG-CC-PVTZ-JKFIT
  @DF-RKS Final Energy:  -184.67219862619785
    Total Energy =                       -184.6721986261978543
  @DF-RKS Final Energy:  -184.67217245764456
    Total Energy =                       -184.6721724576445638
  @DF-RKS Final Energy:  -184.67261546649371
    Total Energy =                       -184.6726154664937098
  @DF-RKS Final Energy:  -184.67260753785288
    Total Energy =                       -184.6726075378529117
  @DF-RKS Final Energy:  -184.67261988607063
    Total Energy =                       -184.6726198860706631
  @DF-RKS Final Energy:  -184.67261568295135
    Total Energy =                       -184.6726156829513741
  @DF-RKS Final Energy:  -184.67261162145238
    Total Energy =                       -184.6726116214523756
  @DF-RKS Final Energy:  -184.67262115286130
    Total Energy =                       -184.6726211528612964
  @DF-RKS Final Energy:  -184.67261961709005
    Total Energy =                       -184.6726196170900494
  @DF-RKS Final Energy:  -184.67261916044828
    Total Energy =                       -184.6726191604482779
  @DF-RKS Final Energy:  -184.67261937511037
    Total Energy =                       -184.6726193751103722
  @DF-RKS Final Energy:  -184.67261928390602
    Total Energy =                       -184.6726192839059877
  **** Optimization is complete! (in 3 steps) ****
    Final optimized geometry and variables:
  @DF-RKS Final Energy:  -184.67262115327432
    Total Energy =                       -184.6726211532743207
  @DF-RKS Final Energy:  -184.67261960781673
    Total Energy =                       -184.6726196078167277
  @DF-RKS Final Energy:  -184.67261916131059
    Total Energy =                       -184.6726191613106209
  @DF-RKS Final Energy:  -184.67261936925823
    Total Energy =                       -184.6726193692582569
  @DF-RKS Final Energy:  -184.67261928755295
    Total Energy =                       -184.6726192875529478
  @DF-RKS Final Energy:  -184.67262115327429
    Total Energy =                       -184.6726211532742923
  @DF-RKS Final Energy:  -184.67261960781661
    Total Energy =                       -184.6726196078166140
  @DF-RKS Final Energy:  -184.67261916131048
    Total Energy =                       -184.6726191613104788
  @DF-RKS Final Energy:  -184.67261936925854
    Total Energy =                       -184.6726193692585412
  @DF-RKS Final Energy:  -184.67261928755272
    Total Energy =                       -184.6726192875527204
  Basis Set: AUG-CC-PV(T+D)Z
    Blend: AUG-CC-PV(T+D)Z
  Basis Set: (AUG-CC-PV(T+D)Z AUX)
    Blend: AUG-CC-PVTZ-JKFIT
  @DF-RKS Final Energy:  -184.67261914431782
    Total Energy =                       -184.6726191443178209
  Basis Set: AUG-CC-PV(T+D)Z
    Blend: AUG-CC-PV(T+D)Z
  Basis Set: (AUG-CC-PV(T+D)Z AUX)
    Blend: AUG-CC-PVTZ-JKFIT
  @DF-RKS Final Energy:  -184.67261968858247
    Total Energy =                       -184.6726196885824720
  Multiplicity = 1
  Basis Set: AUG-CC-PV(T+D)Z
    Blend: AUG-CC-PV(T+D)Z
  Basis Set: (AUG-CC-PV(T+D)Z AUX)
    Blend: AUG-CC-PVTZ-JKFIT
  @DF-RKS Final Energy:  -184.67262095558621
    Total Energy =                       -184.6726209555862113
    Molecular point group: cs

    Geometry (in Angstrom), charge = 0, multiplicity = 1:

       Center              X                  Y                   Z               Mass
    ------------   -----------------  -----------------  -----------------  -----------------
         N            0.000000000000    -0.000299790869    -1.190721476485    14.003074004430
         N            0.000000000000     0.000582974954    -0.074335113286    14.003074004430
         O            0.000000000000    -0.000247919279     1.107519575295    15.994914619570

  Charge       = 0
  Multiplicity = 1
  Basis Set: AUG-CC-PV(T+D)Z
    Blend: AUG-CC-PV(T+D)Z
  Basis Set: (AUG-CC-PV(T+D)Z AUX)
    Blend: AUG-CC-PVTZ-JKFIT

    Orbital Energies [Eh]
    ---------------------

    Doubly Occupied:

       1Ap   -19.314876     2Ap   -14.649311     3Ap   -14.513291
       4Ap    -1.386070     5Ap    -1.226341     6Ap    -0.723698
       1App   -0.692282     7Ap    -0.692282     8Ap    -0.598262
       2App   -0.448530     9Ap    -0.448530

  @DF-RKS Final Energy:  -184.67262095220480

   => Energetics <=

    Nuclear Repulsion Energy =             61.1946884219488894
    One-Electron Energy =                -371.6874971827682543
    Two-Electron Energy =                 141.5830510902704589
    DFT Exchange-Correlation Energy =     -15.8540810830471415
    Empirical Dispersion Energy =           0.0000000000000000
    VV10 Nonlocal Energy =                  0.0912178013912366
    Total Energy =                       -184.6726209522047952

  Dipole Moment: [D]
     X:     0.0000      Y:     0.0010      Z:    -0.1814     Total:     0.1814

  Vibration                       6                   7                   8
  Freq [cm^-1]                 646.4568            651.9621           1354.5842
  Irrep                           B1                  B2                  A1
  Reduced mass [u]             14.2523             14.2523             15.1238
  Force const [mDyne/A]         3.5093              3.5693             16.3502

  Vibration                       9
  Freq [cm^-1]                2400.3782
  Irrep                           A1
  Reduced mass [u]             14.0757
  Force const [mDyne/A]        47.7836

  ==> Thermochemistry Components <==

  Entropy, S
    Electronic S            0.000 [cal/(mol K)]        0.000 [J/(mol K)]       0.00000000 [mEh/K] (multiplicity = 1)
    Translational S        37.271 [cal/(mol K)]      155.941 [J/(mol K)]       0.05939493 [mEh/K] (mol. weight = 44.0011 [u], P = 101325.00 [Pa])
    Rotational S           14.281 [cal/(mol K)]       59.753 [J/(mol K)]       0.02275853 [mEh/K] (symmetry no. = 1)
    Vibrational S           0.767 [cal/(mol K)]        3.208 [J/(mol K)]       0.00122176 [mEh/K]
  Total S                  52.319 [cal/(mol K)]      218.902 [J/(mol K)]       0.08337523 [mEh/K]
  Correction S              0.000 [cal/(mol K)]        0.000 [J/(mol K)]       0.00000000 [mEh/K]

  Constant volume heat capacity, Cv
    Electronic Cv           0.000 [cal/(mol K)]        0.000 [J/(mol K)]       0.00000000 [mEh/K]
    Translational Cv        2.981 [cal/(mol K)]       12.472 [J/(mol K)]       0.00475022 [mEh/K]
    Rotational Cv           1.987 [cal/(mol K)]        8.314 [J/(mol K)]       0.00316681 [mEh/K]
    Vibrational Cv          1.985 [cal/(mol K)]        8.305 [J/(mol K)]       0.00316316 [mEh/K]
  Total Cv                  6.953 [cal/(mol K)]       29.091 [J/(mol K)]       0.01108019 [mEh/K]
  Correction Cv             0.000 [cal/(mol K)]        0.000 [J/(mol K)]       0.00000000 [mEh/K]

  Constant pressure heat capacity, Cp
    Electronic Cp           0.000 [cal/(mol K)]        0.000 [J/(mol K)]       0.00000000 [mEh/K]
    Translational Cp        4.968 [cal/(mol K)]       20.786 [J/(mol K)]       0.00791703 [mEh/K]
    Rotational Cp           1.987 [cal/(mol K)]        8.314 [J/(mol K)]       0.00316681 [mEh/K]
    Vibrational Cp          1.985 [cal/(mol K)]        8.305 [J/(mol K)]       0.00316316 [mEh/K]
  Total Cp                  8.940 [cal/(mol K)]       37.405 [J/(mol K)]       0.01424700 [mEh/K]
  Correction Cp             0.000 [cal/(mol K)]        0.000 [J/(mol K)]       0.00000000 [mEh/K]

  ==> Thermochemistry Energy Analysis <==

  Raw electronic energy, E0
  Total E0, Electronic energy at well bottom at 0 [K]                 -184.67262115 [Eh]

  Zero-point energy, ZPE_vib = Sum_i nu_i / 2
    Electronic ZPE          0.000 [kcal/mol]        0.000 [kJ/mol]       0.00000000 [Eh]
    Translational ZPE       0.000 [kcal/mol]        0.000 [kJ/mol]       0.00000000 [Eh]
    Rotational ZPE          0.000 [kcal/mol]        0.000 [kJ/mol]       0.00000000 [Eh]
    Vibrational ZPE         7.224 [kcal/mol]       30.226 [kJ/mol]       0.01151245 [Eh]        2526.691 [cm^-1]
  Correction ZPE            7.224 [kcal/mol]       30.226 [kJ/mol]       0.01151245 [Eh]        2526.691 [cm^-1]
  Total ZPE, Electronic energy at 0 [K]                               -184.66110870 [Eh]

  Thermal Energy, E (includes ZPE)
    Electronic E            0.000 [kcal/mol]        0.000 [kJ/mol]       0.00000000 [Eh]
    Translational E         0.889 [kcal/mol]        3.718 [kJ/mol]       0.00141628 [Eh]
    Rotational E            0.592 [kcal/mol]        2.479 [kJ/mol]       0.00094418 [Eh]
    Vibrational E           7.399 [kcal/mol]       30.958 [kJ/mol]       0.01179117 [Eh]
  Correction E              8.880 [kcal/mol]       37.155 [kJ/mol]       0.01415163 [Eh]
  Total E, Electronic energy at  298.15 [K]                           -184.65846953 [Eh]

  Enthalpy, H_trans = E_trans + k_B * T
    Electronic H            0.000 [kcal/mol]        0.000 [kJ/mol]       0.00000000 [Eh]
    Translational H         1.481 [kcal/mol]        6.197 [kJ/mol]       0.00236046 [Eh]
    Rotational H            0.592 [kcal/mol]        2.479 [kJ/mol]       0.00094418 [Eh]
    Vibrational H           7.399 [kcal/mol]       30.958 [kJ/mol]       0.01179117 [Eh]
  Correction H              9.473 [kcal/mol]       39.634 [kJ/mol]       0.01509581 [Eh]
  Total H, Enthalpy at  298.15 [K]                                    -184.65752534 [Eh]

  Gibbs free energy, G = H - T * S
    Electronic G            0.000 [kcal/mol]        0.000 [kJ/mol]       0.00000000 [Eh]
    Translational G        -9.631 [kcal/mol]      -40.297 [kJ/mol]      -0.01534814 [Eh]
    Rotational G           -3.665 [kcal/mol]      -15.336 [kJ/mol]      -0.00584127 [Eh]
    Vibrational G           7.170 [kcal/mol]       30.001 [kJ/mol]       0.01142690 [Eh]
  Correction G             -6.126 [kcal/mol]      -25.631 [kJ/mol]      -0.00976251 [Eh]
  Total G, Free enthalpy at  298.15 [K]                               -184.68238366 [Eh]

*** Psi4 exiting successfully. Buy a developer a beer!
