                               Psi4 1.3.2 release

  ==> Input File <==

--------------------------------------------------------------------------
memory 144 GB

molecule {
0 1
O 0.0000000000 0.0000000000 0.0000000000
C 0.0000000000 0.0000000000 1.1584320400
S 0.0000000000 0.0000000000 2.7252829900
}

set dynamic_level 1
set basis aug-cc-pV(T+d)Z

optimize("wB97X-V")
frequencies("wB97X-V")
--------------------------------------------------------------------------

    Molecular point group: c2v
  Charge       = 0
  Multiplicity = 1
  Basis Set: AUG-CC-PV(T+D)Z
    Blend: AUG-CC-PV(T+D)Z
  Basis Set: (AUG-CC-PV(T+D)Z AUX)
    Blend: AUG-CC-PVTZ-JKFIT
  @DF-RKS Final Energy:  -511.50000215151766
    Total Energy =                       -511.5000021515176627
    Molecular point group: c2v
  Basis Set: AUG-CC-PV(T+D)Z
    Blend: AUG-CC-PV(T+D)Z
  Basis Set: (AUG-CC-PV(T+D)Z AUX)
    Blend: AUG-CC-PVTZ-JKFIT
  @DF-RKS Final Energy:  -511.49998306807731
    Total Energy =                       -511.4999830680772561
  Basis Set: AUG-CC-PV(T+D)Z
    Blend: AUG-CC-PV(T+D)Z
  Basis Set: (AUG-CC-PV(T+D)Z AUX)
    Blend: AUG-CC-PVTZ-JKFIT
  @DF-RKS Final Energy:  -511.50001897799967
    Total Energy =                       -511.5000189779996731
  Basis Set: AUG-CC-PV(T+D)Z
    Blend: AUG-CC-PV(T+D)Z
  Basis Set: (AUG-CC-PV(T+D)Z AUX)
    Blend: AUG-CC-PVTZ-JKFIT
  @DF-RKS Final Energy:  -511.50000489912708
    Total Energy =                       -511.5000048991270774
  @DF-RKS Final Energy:  -511.49999674697079
    Total Energy =                       -511.4999967469707940
  @DF-RKS Final Energy:  -511.50010490414502
    Total Energy =                       -511.5001049041450187
  @DF-RKS Final Energy:  -511.50010214803439
    Total Energy =                       -511.5001021480343297
  @DF-RKS Final Energy:  -511.50010532733108
    Total Energy =                       -511.5001053273310845
  @DF-RKS Final Energy:  -511.50010437079760
    Total Energy =                       -511.5001043707976010
  @DF-RKS Final Energy:  -511.50010268384273
    Total Energy =                       -511.5001026838426696
  @DF-RKS Final Energy:  -511.50010549361946
    Total Energy =                       -511.5001054936194578
  @DF-RKS Final Energy:  -511.50010425985204
    Total Energy =                       -511.5001042598520371
  @DF-RKS Final Energy:  -511.50010437348857
    Total Energy =                       -511.5001043734885116
  @DF-RKS Final Energy:  -511.50010424038851
    Total Energy =                       -511.5001042403885094
  @DF-RKS Final Energy:  -511.50010398137238
    Total Energy =                       -511.5001039813723764
  **** Optimization is complete! (in 3 steps) ****
    Final optimized geometry and variables:
  @DF-RKS Final Energy:  -511.50010549361906
    Total Energy =                       -511.5001054936190599
  @DF-RKS Final Energy:  -511.50010426164562
    Total Energy =                       -511.5001042616456175
  @DF-RKS Final Energy:  -511.50010437287511
    Total Energy =                       -511.5001043728751142
  @DF-RKS Final Energy:  -511.50010424445168
    Total Energy =                       -511.5001042444516770
  @DF-RKS Final Energy:  -511.50010398137260
    Total Energy =                       -511.5001039813726038
  @DF-RKS Final Energy:  -511.50010549361934
    Total Energy =                       -511.5001054936192872
  @DF-RKS Final Energy:  -511.50010426164550
    Total Energy =                       -511.5001042616455038
  @DF-RKS Final Energy:  -511.50010437287494
    Total Energy =                       -511.5001043728749437
  @DF-RKS Final Energy:  -511.50010424445196
    Total Energy =                       -511.5001042444519612
  @DF-RKS Final Energy:  -511.50010398137266
    Total Energy =                       -511.5001039813726607
  Basis Set: AUG-CC-PV(T+D)Z
    Blend: AUG-CC-PV(T+D)Z
  Basis Set: (AUG-CC-PV(T+D)Z AUX)
    Blend: AUG-CC-PVTZ-JKFIT
  @DF-RKS Final Energy:  -511.50010465181236
    Total Energy =                       -511.5001046518123644
  Basis Set: AUG-CC-PV(T+D)Z
    Blend: AUG-CC-PV(T+D)Z
  Basis Set: (AUG-CC-PV(T+D)Z AUX)
    Blend: AUG-CC-PVTZ-JKFIT
  @DF-RKS Final Energy:  -511.50010479125132
    Total Energy =                       -511.5001047912513741
  Multiplicity = 1
  Basis Set: AUG-CC-PV(T+D)Z
    Blend: AUG-CC-PV(T+D)Z
  Basis Set: (AUG-CC-PV(T+D)Z AUX)
    Blend: AUG-CC-PVTZ-JKFIT
  @DF-RKS Final Energy:  -511.50010535148425
    Total Energy =                       -511.5001053514842511
    Molecular point group: cs

    Geometry (in Angstrom), charge = 0, multiplicity = 1:

       Center              X                  Y                   Z               Mass
    ------------   -----------------  -----------------  -----------------  -----------------
         O            0.000000000000    -0.000287297252    -1.677449139206    15.994914619570
         C            0.000000000000     0.000665835966    -0.524552477756    12.000000000000
         S            0.000000000000    -0.000106178188     1.036069427991    31.972071174400

  Charge       = 0
  Multiplicity = 1
  Basis Set: AUG-CC-PV(T+D)Z
    Blend: AUG-CC-PV(T+D)Z
  Basis Set: (AUG-CC-PV(T+D)Z AUX)
    Blend: AUG-CC-PVTZ-JKFIT

    Orbital Energies [Eh]
    ---------------------

    Doubly Occupied:

       1Ap   -88.921025     2Ap   -19.307204     3Ap   -10.444956
       4Ap    -8.079139     5Ap    -6.036123     1App   -6.029415
       6Ap    -6.029415     7Ap    -1.281732     8Ap    -0.955850
       9Ap    -0.672718     2App   -0.600644    10Ap    -0.600644
      11Ap    -0.582322     3App   -0.402503    12Ap    -0.402503

  @DF-RKS Final Energy:  -511.50010535133924

   => Energetics <=

    Nuclear Repulsion Energy =             79.5456029877604180
    One-Electron Energy =                -861.5391450706573551
    Two-Electron Energy =                 299.6410506427986888
    DFT Exchange-Correlation Energy =     -29.2721151586939072
    Empirical Dispersion Energy =           0.0000000000000000
    VV10 Nonlocal Energy =                  0.1245012474529170
    Total Energy =                       -511.5001053513392435

  Dipole Moment: [D]
     X:     0.0000      Y:     0.0007      Z:     0.6534     Total:     0.6534

  Vibration                       6                   7                   8
  Freq [cm^-1]                 548.1506            548.4302            896.5272
  Irrep                           B1                  B2                  A1
  Reduced mass [u]             13.0330             13.0330             19.6005
  Force const [mDyne/A]         2.3073              2.3096              9.2820

  Vibration                       9
  Freq [cm^-1]                2145.1799
  Irrep                           A1
  Reduced mass [u]             13.1434
  Force const [mDyne/A]        35.6357

  ==> Thermochemistry Components <==

  Entropy, S
    Electronic S            0.000 [cal/(mol K)]        0.000 [J/(mol K)]       0.00000000 [mEh/K] (multiplicity = 1)
    Translational S        38.194 [cal/(mol K)]      159.802 [J/(mol K)]       0.06086550 [mEh/K] (mol. weight = 59.9670 [u], P = 101325.00 [Pa])
    Rotational S           15.745 [cal/(mol K)]       65.878 [J/(mol K)]       0.02509178 [mEh/K] (symmetry no. = 1)
    Vibrational S           1.238 [cal/(mol K)]        5.179 [J/(mol K)]       0.00197248 [mEh/K]
  Total S                  55.177 [cal/(mol K)]      230.860 [J/(mol K)]       0.08792976 [mEh/K]
  Correction S              0.000 [cal/(mol K)]        0.000 [J/(mol K)]       0.00000000 [mEh/K]

  Constant volume heat capacity, Cv
    Electronic Cv           0.000 [cal/(mol K)]        0.000 [J/(mol K)]       0.00000000 [mEh/K]
    Translational Cv        2.981 [cal/(mol K)]       12.472 [J/(mol K)]       0.00475022 [mEh/K]
    Rotational Cv           1.987 [cal/(mol K)]        8.314 [J/(mol K)]       0.00316681 [mEh/K]
    Vibrational Cv          2.798 [cal/(mol K)]       11.709 [J/(mol K)]       0.00445963 [mEh/K]
  Total Cv                  7.766 [cal/(mol K)]       32.495 [J/(mol K)]       0.01237666 [mEh/K]
  Correction Cv             0.000 [cal/(mol K)]        0.000 [J/(mol K)]       0.00000000 [mEh/K]

  Constant pressure heat capacity, Cp
    Electronic Cp           0.000 [cal/(mol K)]        0.000 [J/(mol K)]       0.00000000 [mEh/K]
    Translational Cp        4.968 [cal/(mol K)]       20.786 [J/(mol K)]       0.00791703 [mEh/K]
    Rotational Cp           1.987 [cal/(mol K)]        8.314 [J/(mol K)]       0.00316681 [mEh/K]
    Vibrational Cp          2.798 [cal/(mol K)]       11.709 [J/(mol K)]       0.00445963 [mEh/K]
  Total Cp                  9.754 [cal/(mol K)]       40.809 [J/(mol K)]       0.01554347 [mEh/K]
  Correction Cp             0.000 [cal/(mol K)]        0.000 [J/(mol K)]       0.00000000 [mEh/K]

  ==> Thermochemistry Energy Analysis <==

  Raw electronic energy, E0
  Total E0, Electronic energy at well bottom at 0 [K]                 -511.50010549 [Eh]

  Zero-point energy, ZPE_vib = Sum_i nu_i / 2
    Electronic ZPE          0.000 [kcal/mol]        0.000 [kJ/mol]       0.00000000 [Eh]
    Translational ZPE       0.000 [kcal/mol]        0.000 [kJ/mol]       0.00000000 [Eh]
    Rotational ZPE          0.000 [kcal/mol]        0.000 [kJ/mol]       0.00000000 [Eh]
    Vibrational ZPE         5.916 [kcal/mol]       24.752 [kJ/mol]       0.00942771 [Eh]        2069.144 [cm^-1]
  Correction ZPE            5.916 [kcal/mol]       24.752 [kJ/mol]       0.00942771 [Eh]        2069.144 [cm^-1]
  Total ZPE, Electronic energy at 0 [K]                               -511.49067778 [Eh]

  Thermal Energy, E (includes ZPE)
    Electronic E            0.000 [kcal/mol]        0.000 [kJ/mol]       0.00000000 [Eh]
    Translational E         0.889 [kcal/mol]        3.718 [kJ/mol]       0.00141628 [Eh]
    Rotational E            0.592 [kcal/mol]        2.479 [kJ/mol]       0.00094418 [Eh]
    Vibrational E           6.190 [kcal/mol]       25.899 [kJ/mol]       0.00986426 [Eh]
  Correction E              7.671 [kcal/mol]       32.096 [kJ/mol]       0.01222472 [Eh]
  Total E, Electronic energy at  298.15 [K]                           -511.48788077 [Eh]

  Enthalpy, H_trans = E_trans + k_B * T
    Electronic H            0.000 [kcal/mol]        0.000 [kJ/mol]       0.00000000 [Eh]
    Translational H         1.481 [kcal/mol]        6.197 [kJ/mol]       0.00236046 [Eh]
    Rotational H            0.592 [kcal/mol]        2.479 [kJ/mol]       0.00094418 [Eh]
    Vibrational H           6.190 [kcal/mol]       25.899 [kJ/mol]       0.00986426 [Eh]
  Correction H              8.264 [kcal/mol]       34.575 [kJ/mol]       0.01316891 [Eh]
  Total H, Enthalpy at  298.15 [K]                                    -511.48693659 [Eh]

  Gibbs free energy, G = H - T * S
    Electronic G            0.000 [kcal/mol]        0.000 [kJ/mol]       0.00000000 [Eh]
    Translational G        -9.906 [kcal/mol]      -41.448 [kJ/mol]      -0.01578659 [Eh]
    Rotational G           -4.102 [kcal/mol]      -17.163 [kJ/mol]      -0.00653693 [Eh]
    Vibrational G           5.821 [kcal/mol]       24.355 [kJ/mol]       0.00927617 [Eh]
  Correction G             -8.187 [kcal/mol]      -34.256 [kJ/mol]      -0.01304735 [Eh]
  Total G, Free enthalpy at  298.15 [K]                               -511.51315285 [Eh]

*** Psi4 exiting successfully. Buy a developer a beer!
