                               Psi4 1.3.2 release

  ==> Input File <==

--------------------------------------------------------------------------
memory 144 GB

molecule {
0 1
P 0.0000000000 0.0000000000 -0.0679917919
H 1.1903431933 0.0000000000 0.6964572780
H -0.5951715967 -1.0308674445 0.6964572780
H -0.5951715967 1.0308674445 0.6964572780
}

set dynamic_level 1
set basis aug-cc-pV(T+d)Z

optimize("wB97X-V")
frequencies("wB97X-V")
--------------------------------------------------------------------------

    Molecular point group: cs
  Charge       = 0
  Multiplicity = 1
  Basis Set: AUG-CC-PV(T+D)Z
    Blend: AUG-CC-PV(T+D)Z
  Basis Set: (AUG-CC-PV(T+D)Z AUX)
    Blend: AUG-CC-PVTZ-JKFIT
  @DF-RKS Final Energy:  -343.10151820761843
    Total Energy =                       -343.1015182076184260
    Molecular point group: cs
  Basis Set: AUG-CC-PV(T+D)Z
    Blend: AUG-CC-PV(T+D)Z
  Basis Set: (AUG-CC-PV(T+D)Z AUX)
    Blend: AUG-CC-PVTZ-JKFIT
  @DF-RKS Final Energy:  -343.10151611881986
    Total Energy =                       -343.1015161188198590
  Basis Set: AUG-CC-PV(T+D)Z
    Blend: AUG-CC-PV(T+D)Z
  Basis Set: (AUG-CC-PV(T+D)Z AUX)
    Blend: AUG-CC-PVTZ-JKFIT
  @DF-RKS Final Energy:  -343.10151616118560
    Total Energy =                       -343.1015161611856570
  Basis Set: AUG-CC-PV(T+D)Z
    Blend: AUG-CC-PV(T+D)Z
  Basis Set: (AUG-CC-PV(T+D)Z AUX)
    Blend: AUG-CC-PVTZ-JKFIT
  @DF-RKS Final Energy:  -343.10151792112850
    Total Energy =                       -343.1015179211285044
  @DF-RKS Final Energy:  -343.10151622302448
    Total Energy =                       -343.1015162230244755
  @DF-RKS Final Energy:  -343.10151374453739
    Total Energy =                       -343.1015137445373853
  @DF-RKS Final Energy:  -343.10151904877483
    Total Energy =                       -343.1015190487748328
  @DF-RKS Final Energy:  -343.10151375697154
    Total Energy =                       -343.1015137569715421
  @DF-RKS Final Energy:  -343.10151903809611
    Total Energy =                       -343.1015190380961712
  @DF-RKS Final Energy:  -343.10152243603886
    Total Energy =                       -343.1015224360389197
  @DF-RKS Final Energy:  -343.10152037548067
    Total Energy =                       -343.1015203754806748
  @DF-RKS Final Energy:  -343.10152037565092
    Total Energy =                       -343.1015203756509209
  @DF-RKS Final Energy:  -343.10152186887922
    Total Energy =                       -343.1015218688792174
  @DF-RKS Final Energy:  -343.10152075116099
    Total Energy =                       -343.1015207511609901
  @DF-RKS Final Energy:  -343.10152100879151
    Total Energy =                       -343.1015210087914511
  @DF-RKS Final Energy:  -343.10152025143321
    Total Energy =                       -343.1015202514332145
  @DF-RKS Final Energy:  -343.10152100751668
    Total Energy =                       -343.1015210075166237
  @DF-RKS Final Energy:  -343.10152025275335
    Total Energy =                       -343.1015202527532324
  **** Optimization is complete! (in 2 steps) ****
    Final optimized geometry and variables:
  @DF-RKS Final Energy:  -343.10152243687827
    Total Energy =                       -343.1015224368783265
  @DF-RKS Final Energy:  -343.10152037507231
    Total Energy =                       -343.1015203750723117
  @DF-RKS Final Energy:  -343.10152100802873
    Total Energy =                       -343.1015210080287261
  @DF-RKS Final Energy:  -343.10152025219548
    Total Energy =                       -343.1015202521954848
  @DF-RKS Final Energy:  -343.10152100774548
    Total Energy =                       -343.1015210077454185
  @DF-RKS Final Energy:  -343.10152025231349
    Total Energy =                       -343.1015202523134349
  @DF-RKS Final Energy:  -343.10151869201331
    Total Energy =                       -343.1015186920133146
  @DF-RKS Final Energy:  -343.10151980117234
    Total Energy =                       -343.1015198011724010
  @DF-RKS Final Energy:  -343.10151670506514
    Total Energy =                       -343.1015167050651371
  @DF-RKS Final Energy:  -343.10151742035589
    Total Energy =                       -343.1015174203558331
  @DF-RKS Final Energy:  -343.10151709739506
    Total Energy =                       -343.1015170973950603
  @DF-RKS Final Energy:  -343.10151895596829
    Total Energy =                       -343.1015189559682881
  @DF-RKS Final Energy:  -343.10151969015232
    Total Energy =                       -343.1015196901523723
  @DF-RKS Final Energy:  -343.10152045102728
    Total Energy =                       -343.1015204510273406
  @DF-RKS Final Energy:  -343.10151709609192
    Total Energy =                       -343.1015170960919249
  @DF-RKS Final Energy:  -343.10151895207139
    Total Energy =                       -343.1015189520713875
  @DF-RKS Final Energy:  -343.10151727927166
    Total Energy =                       -343.1015172792716612
  @DF-RKS Final Energy:  -343.10151878159843
    Total Energy =                       -343.1015187815984859
  Basis Set: AUG-CC-PV(T+D)Z
    Blend: AUG-CC-PV(T+D)Z
  Basis Set: (AUG-CC-PV(T+D)Z AUX)
    Blend: AUG-CC-PVTZ-JKFIT
  @DF-RKS Final Energy:  -343.10152037039552
    Total Energy =                       -343.1015203703954626
  Basis Set: AUG-CC-PV(T+D)Z
    Blend: AUG-CC-PV(T+D)Z
  Basis Set: (AUG-CC-PV(T+D)Z AUX)
    Blend: AUG-CC-PVTZ-JKFIT
  @DF-RKS Final Energy:  -343.10152181417135
    Total Energy =                       -343.1015218141713490
  Multiplicity = 1
  Basis Set: AUG-CC-PV(T+D)Z
    Blend: AUG-CC-PV(T+D)Z
  Basis Set: (AUG-CC-PV(T+D)Z AUX)
    Blend: AUG-CC-PVTZ-JKFIT
  @DF-RKS Final Energy:  -343.10152186056314
    Total Energy =                       -343.1015218605631958
    Molecular point group: c1

    Geometry (in Angstrom), charge = 0, multiplicity = 1:

       Center              X                  Y                   Z               Mass
    ------------   -----------------  -----------------  -----------------  -----------------
         P            0.000000944981     0.067725369914    -0.000107410169    30.973761998420
         H            0.595241139409    -0.695022166761     1.033630873090     1.007825032230
         H            0.597876741913    -0.692589282852    -1.032951814746     1.007825032230
         H           -1.193146923694    -0.693810842834     0.002622007733     1.007825032230

  Charge       = 0
  Multiplicity = 1
  Basis Set: AUG-CC-PV(T+D)Z
    Blend: AUG-CC-PV(T+D)Z
  Basis Set: (AUG-CC-PV(T+D)Z AUX)
    Blend: AUG-CC-PVTZ-JKFIT

    Orbital Energies [Eh]
    ---------------------

    Doubly Occupied:

       1A    -77.093242     2A     -6.657740     3A     -4.811727
       4A     -4.811725     5A     -4.807251     6A     -0.773128
       7A     -0.489908     8A     -0.489231     9A     -0.374889

  @DF-RKS Final Energy:  -343.10152186048805

   => Energetics <=

    Nuclear Repulsion Energy =             17.5917156738920575
    One-Electron Energy =                -508.5635413410325327
    Two-Electron Energy =                 165.8166261967116952
    DFT Exchange-Correlation Energy =     -18.0217062032296695
    Empirical Dispersion Energy =           0.0000000000000000
    VV10 Nonlocal Energy =                  0.0753838131704039
    Total Energy =                       -343.1015218604880488

  Dipole Moment: [D]
     X:     0.0000      Y:    -0.6924      Z:    -0.0027     Total:     0.6924

  Vibration                       7                   8                   9
  Freq [cm^-1]                 370.9328           1017.7150           1148.3345
  Irrep                          App                  Ap                  Ap
  Reduced mass [u]              1.0188              1.0753              1.0257
  Force const [mDyne/A]         0.0826              0.6562              0.7969

  Vibration                       10                  11                  12
  Freq [cm^-1]                2355.2653           2450.3554           2453.8163
  Irrep                          App                  Ap                  Ap
  Reduced mass [u]              1.0483              1.0320              1.0409
  Force const [mDyne/A]         3.4263              3.6508              3.6928

  ==> Thermochemistry Components <==

  Entropy, S
    Electronic S            0.000 [cal/(mol K)]        0.000 [J/(mol K)]       0.00000000 [mEh/K] (multiplicity = 1)
    Translational S        36.502 [cal/(mol K)]      152.724 [J/(mol K)]       0.05816968 [mEh/K] (mol. weight = 33.9972 [u], P = 101325.00 [Pa])
    Rotational S           15.674 [cal/(mol K)]       65.579 [J/(mol K)]       0.02497757 [mEh/K] (symmetry no. = 1)
    Vibrational S           1.215 [cal/(mol K)]        5.083 [J/(mol K)]       0.00193594 [mEh/K]
  Total S                  53.391 [cal/(mol K)]      223.386 [J/(mol K)]       0.08508319 [mEh/K]
  Correction S              0.000 [cal/(mol K)]        0.000 [J/(mol K)]       0.00000000 [mEh/K]

  Constant volume heat capacity, Cv
    Electronic Cv           0.000 [cal/(mol K)]        0.000 [J/(mol K)]       0.00000000 [mEh/K]
    Translational Cv        2.981 [cal/(mol K)]       12.472 [J/(mol K)]       0.00475022 [mEh/K]
    Rotational Cv           2.981 [cal/(mol K)]       12.472 [J/(mol K)]       0.00475022 [mEh/K]
    Vibrational Cv          2.138 [cal/(mol K)]        8.946 [J/(mol K)]       0.00340753 [mEh/K]
  Total Cv                  8.100 [cal/(mol K)]       33.890 [J/(mol K)]       0.01290797 [mEh/K]
  Correction Cv             0.000 [cal/(mol K)]        0.000 [J/(mol K)]       0.00000000 [mEh/K]

  Constant pressure heat capacity, Cp
    Electronic Cp           0.000 [cal/(mol K)]        0.000 [J/(mol K)]       0.00000000 [mEh/K]
    Translational Cp        4.968 [cal/(mol K)]       20.786 [J/(mol K)]       0.00791703 [mEh/K]
    Rotational Cp           2.981 [cal/(mol K)]       12.472 [J/(mol K)]       0.00475022 [mEh/K]
    Vibrational Cp          2.138 [cal/(mol K)]        8.946 [J/(mol K)]       0.00340753 [mEh/K]
  Total Cp                 10.087 [cal/(mol K)]       42.204 [J/(mol K)]       0.01607478 [mEh/K]
  Correction Cp             0.000 [cal/(mol K)]        0.000 [J/(mol K)]       0.00000000 [mEh/K]

  ==> Thermochemistry Energy Analysis <==

  Raw electronic energy, E0
  Total E0, Electronic energy at well bottom at 0 [K]                 -343.10152244 [Eh]

  Zero-point energy, ZPE_vib = Sum_i nu_i / 2
    Electronic ZPE          0.000 [kcal/mol]        0.000 [kJ/mol]       0.00000000 [Eh]
    Translational ZPE       0.000 [kcal/mol]        0.000 [kJ/mol]       0.00000000 [Eh]
    Rotational ZPE          0.000 [kcal/mol]        0.000 [kJ/mol]       0.00000000 [Eh]
    Vibrational ZPE        14.005 [kcal/mol]       58.596 [kJ/mol]       0.02231789 [Eh]        4898.210 [cm^-1]
  Correction ZPE           14.005 [kcal/mol]       58.596 [kJ/mol]       0.02231789 [Eh]        4898.210 [cm^-1]
  Total ZPE, Electronic energy at 0 [K]                               -343.07920455 [Eh]

  Thermal Energy, E (includes ZPE)
    Electronic E            0.000 [kcal/mol]        0.000 [kJ/mol]       0.00000000 [Eh]
    Translational E         0.889 [kcal/mol]        3.718 [kJ/mol]       0.00141628 [Eh]
    Rotational E            0.889 [kcal/mol]        3.718 [kJ/mol]       0.00141628 [Eh]
    Vibrational E          14.252 [kcal/mol]       59.630 [kJ/mol]       0.02271190 [Eh]
  Correction E             16.029 [kcal/mol]       67.067 [kJ/mol]       0.02554445 [Eh]
  Total E, Electronic energy at  298.15 [K]                           -343.07597799 [Eh]

  Enthalpy, H_trans = E_trans + k_B * T
    Electronic H            0.000 [kcal/mol]        0.000 [kJ/mol]       0.00000000 [Eh]
    Translational H         1.481 [kcal/mol]        6.197 [kJ/mol]       0.00236046 [Eh]
    Rotational H            0.889 [kcal/mol]        3.718 [kJ/mol]       0.00141628 [Eh]
    Vibrational H          14.252 [kcal/mol]       59.630 [kJ/mol]       0.02271190 [Eh]
  Correction H             16.622 [kcal/mol]       69.546 [kJ/mol]       0.02648864 [Eh]
  Total H, Enthalpy at  298.15 [K]                                    -343.07503380 [Eh]

  Gibbs free energy, G = H - T * S
    Electronic G            0.000 [kcal/mol]        0.000 [kJ/mol]       0.00000000 [Eh]
    Translational G        -9.402 [kcal/mol]      -39.337 [kJ/mol]      -0.01498283 [Eh]
    Rotational G           -3.784 [kcal/mol]      -15.834 [kJ/mol]      -0.00603078 [Eh]
    Vibrational G          13.890 [kcal/mol]       58.115 [kJ/mol]       0.02213470 [Eh]
  Correction G              0.703 [kcal/mol]        2.943 [kJ/mol]       0.00112108 [Eh]
  Total G, Free enthalpy at  298.15 [K]                               -343.10040135 [Eh]

*** Psi4 exiting successfully. Buy a developer a beer!
