                               Psi4 1.3.2 release

  ==> Input File <==

--------------------------------------------------------------------------
memory 144 GB

molecule {
0 1
Si 0.0000000000 0.0000000000 0.0000000000
O 0.0000000000 0.0000000000 1.5170406700
}

set dynamic_level 1
set basis aug-cc-pV(T+d)Z

optimize("wB97X-V")
frequencies("wB97X-V")
--------------------------------------------------------------------------

    Molecular point group: c2v
  Charge       = 0
  Multiplicity = 1
  Basis Set: AUG-CC-PV(T+D)Z
    Blend: AUG-CC-PV(T+D)Z
  Basis Set: (AUG-CC-PV(T+D)Z AUX)
    Blend: AUG-CC-PVTZ-JKFIT
  @DF-RKS Final Energy:  -364.69019397373495
    Total Energy =                       -364.6901939737349494
    Molecular point group: c2v
  Basis Set: AUG-CC-PV(T+D)Z
    Blend: AUG-CC-PV(T+D)Z
  Basis Set: (AUG-CC-PV(T+D)Z AUX)
    Blend: AUG-CC-PVTZ-JKFIT
  @DF-RKS Final Energy:  -364.69017200143941
    Total Energy =                       -364.6901720014394073
  Basis Set: AUG-CC-PV(T+D)Z
    Blend: AUG-CC-PV(T+D)Z
  Basis Set: (AUG-CC-PV(T+D)Z AUX)
    Blend: AUG-CC-PVTZ-JKFIT
  @DF-RKS Final Energy:  -364.69021445812763
    Total Energy =                       -364.6902144581276843
  Basis Set: AUG-CC-PV(T+D)Z
    Blend: AUG-CC-PV(T+D)Z
  Basis Set: (AUG-CC-PV(T+D)Z AUX)
    Blend: AUG-CC-PVTZ-JKFIT
  @DF-RKS Final Energy:  -364.69033984362653
    Total Energy =                       -364.6903398436265320
  @DF-RKS Final Energy:  -364.69033637910985
    Total Energy =                       -364.6903363791098514
  @DF-RKS Final Energy:  -364.69034173265766
    Total Energy =                       -364.6903417326576005
  @DF-RKS Final Energy:  -364.69034211124347
    Total Energy =                       -364.6903421112434671
  @DF-RKS Final Energy:  -364.69034140496672
    Total Energy =                       -364.6903414049667163
  @DF-RKS Final Energy:  -364.69034123087124
    Total Energy =                       -364.6903412308712404
  **** Optimization is complete! (in 3 steps) ****
    Final optimized geometry and variables:
  @DF-RKS Final Energy:  -364.69034211124381
    Total Energy =                       -364.6903421112437513
  @DF-RKS Final Energy:  -364.69034140496700
    Total Energy =                       -364.6903414049669436
  Basis Set: AUG-CC-PV(T+D)Z
    Blend: AUG-CC-PV(T+D)Z
  Basis Set: (AUG-CC-PV(T+D)Z AUX)
    Blend: AUG-CC-PVTZ-JKFIT
  @DF-RKS Final Energy:  -364.69034123082690
    Total Energy =                       -364.6903412308269594
  Basis Set: AUG-CC-PV(T+D)Z
    Blend: AUG-CC-PV(T+D)Z
  Basis Set: (AUG-CC-PV(T+D)Z AUX)
    Blend: AUG-CC-PVTZ-JKFIT
  @DF-RKS Final Energy:  -364.69034211124432
    Total Energy =                       -364.6903421112443198
  Multiplicity = 1
  Basis Set: AUG-CC-PV(T+D)Z
    Blend: AUG-CC-PV(T+D)Z
  Basis Set: (AUG-CC-PV(T+D)Z AUX)
    Blend: AUG-CC-PVTZ-JKFIT
  @DF-RKS Final Energy:  -364.69034140496717
    Total Energy =                       -364.6903414049671710
    Molecular point group: c2v

    Geometry (in Angstrom), charge = 0, multiplicity = 1:

       Center              X                  Y                   Z               Mass
    ------------   -----------------  -----------------  -----------------  -----------------
         SI           0.000000000000     0.000000000000    -0.547344617648    27.976926534650
         O            0.000000000000     0.000000000000     0.957368046112    15.994914619570

  Charge       = 0
  Multiplicity = 1
  Basis Set: AUG-CC-PV(T+D)Z
    Blend: AUG-CC-PV(T+D)Z
  Basis Set: (AUG-CC-PV(T+D)Z AUX)
    Blend: AUG-CC-PVTZ-JKFIT

    Orbital Energies [Eh]
    ---------------------

    Doubly Occupied:

       1A1   -66.187532     2A1   -19.201159     3A1    -5.424041
       1B2    -3.776036     1B1    -3.776036     4A1    -3.768220
       5A1    -1.071022     6A1    -0.548148     2B1    -0.440903
       2B2    -0.440903     7A1    -0.412386

  @DF-RKS Final Energy:  -364.69034123082713

   => Energetics <=

    Nuclear Repulsion Energy =             39.3881496597248884
    One-Electron Energy =                -583.2732099485514254
    Two-Electron Energy =                 200.8804063223580556
    DFT Exchange-Correlation Energy =     -21.7786795652905134
    Empirical Dispersion Energy =           0.0000000000000000
    VV10 Nonlocal Energy =                  0.0929923009317625
    Total Energy =                       -364.6903412308271868

  Dipole Moment: [D]
     X:     0.0000      Y:     0.0000      Z:    -3.2185     Total:     3.2185

  Vibration                       6
  Freq [cm^-1]                1295.0332
  Irrep                           A1
  Reduced mass [u]             18.9466
  Force const [mDyne/A]        18.7216

  ==> Thermochemistry Components <==

  Entropy, S
    Electronic S            0.000 [cal/(mol K)]        0.000 [J/(mol K)]       0.00000000 [mEh/K] (multiplicity = 1)
    Translational S        37.269 [cal/(mol K)]      155.933 [J/(mol K)]       0.05939177 [mEh/K] (mol. weight = 43.9718 [u], P = 101325.00 [Pa])
    Rotational S           13.210 [cal/(mol K)]       55.270 [J/(mol K)]       0.02105108 [mEh/K] (symmetry no. = 1)
    Vibrational S           0.028 [cal/(mol K)]        0.117 [J/(mol K)]       0.00004442 [mEh/K]
  Total S                  50.507 [cal/(mol K)]      211.319 [J/(mol K)]       0.08048727 [mEh/K]
  Correction S              0.000 [cal/(mol K)]        0.000 [J/(mol K)]       0.00000000 [mEh/K]

  Constant volume heat capacity, Cv
    Electronic Cv           0.000 [cal/(mol K)]        0.000 [J/(mol K)]       0.00000000 [mEh/K]
    Translational Cv        2.981 [cal/(mol K)]       12.472 [J/(mol K)]       0.00475022 [mEh/K]
    Rotational Cv           1.987 [cal/(mol K)]        8.314 [J/(mol K)]       0.00316681 [mEh/K]
    Vibrational Cv          0.150 [cal/(mol K)]        0.630 [J/(mol K)]       0.00023982 [mEh/K]
  Total Cv                  5.119 [cal/(mol K)]       21.416 [J/(mol K)]       0.00815685 [mEh/K]
  Correction Cv             0.000 [cal/(mol K)]        0.000 [J/(mol K)]       0.00000000 [mEh/K]

  Constant pressure heat capacity, Cp
    Electronic Cp           0.000 [cal/(mol K)]        0.000 [J/(mol K)]       0.00000000 [mEh/K]
    Translational Cp        4.968 [cal/(mol K)]       20.786 [J/(mol K)]       0.00791703 [mEh/K]
    Rotational Cp           1.987 [cal/(mol K)]        8.314 [J/(mol K)]       0.00316681 [mEh/K]
    Vibrational Cp          0.150 [cal/(mol K)]        0.630 [J/(mol K)]       0.00023982 [mEh/K]
  Total Cp                  7.106 [cal/(mol K)]       29.730 [J/(mol K)]       0.01132366 [mEh/K]
  Correction Cp             0.000 [cal/(mol K)]        0.000 [J/(mol K)]       0.00000000 [mEh/K]

  ==> Thermochemistry Energy Analysis <==

  Raw electronic energy, E0
  Total E0, Electronic energy at well bottom at 0 [K]                 -364.69034211 [Eh]

  Zero-point energy, ZPE_vib = Sum_i nu_i / 2
    Electronic ZPE          0.000 [kcal/mol]        0.000 [kJ/mol]       0.00000000 [Eh]
    Translational ZPE       0.000 [kcal/mol]        0.000 [kJ/mol]       0.00000000 [Eh]
    Rotational ZPE          0.000 [kcal/mol]        0.000 [kJ/mol]       0.00000000 [Eh]
    Vibrational ZPE         1.851 [kcal/mol]        7.746 [kJ/mol]       0.00295030 [Eh]         647.517 [cm^-1]
  Correction ZPE            1.851 [kcal/mol]        7.746 [kJ/mol]       0.00295030 [Eh]         647.517 [cm^-1]
  Total ZPE, Electronic energy at 0 [K]                               -364.68739181 [Eh]

  Thermal Energy, E (includes ZPE)
    Electronic E            0.000 [kcal/mol]        0.000 [kJ/mol]       0.00000000 [Eh]
    Translational E         0.889 [kcal/mol]        3.718 [kJ/mol]       0.00141628 [Eh]
    Rotational E            0.592 [kcal/mol]        2.479 [kJ/mol]       0.00094418 [Eh]
    Vibrational E           1.859 [kcal/mol]        7.776 [kJ/mol]       0.00296172 [Eh]
  Correction E              3.340 [kcal/mol]       13.973 [kJ/mol]       0.00532218 [Eh]
  Total E, Electronic energy at  298.15 [K]                           -364.68501993 [Eh]

  Enthalpy, H_trans = E_trans + k_B * T
    Electronic H            0.000 [kcal/mol]        0.000 [kJ/mol]       0.00000000 [Eh]
    Translational H         1.481 [kcal/mol]        6.197 [kJ/mol]       0.00236046 [Eh]
    Rotational H            0.592 [kcal/mol]        2.479 [kJ/mol]       0.00094418 [Eh]
    Vibrational H           1.859 [kcal/mol]        7.776 [kJ/mol]       0.00296172 [Eh]
  Correction H              3.932 [kcal/mol]       16.452 [kJ/mol]       0.00626637 [Eh]
  Total H, Enthalpy at  298.15 [K]                                    -364.68407574 [Eh]

  Gibbs free energy, G = H - T * S
    Electronic G            0.000 [kcal/mol]        0.000 [kJ/mol]       0.00000000 [Eh]
    Translational G        -9.631 [kcal/mol]      -40.294 [kJ/mol]      -0.01534720 [Eh]
    Rotational G           -3.346 [kcal/mol]      -14.000 [kJ/mol]      -0.00533219 [Eh]
    Vibrational G           1.850 [kcal/mol]        7.741 [kJ/mol]       0.00294848 [Eh]
  Correction G            -11.126 [kcal/mol]      -46.553 [kJ/mol]      -0.01773091 [Eh]
  Total G, Free enthalpy at  298.15 [K]                               -364.70807302 [Eh]

*** Psi4 exiting successfully. Buy a developer a beer!
