                               Psi4 1.3.2 release

  ==> Input File <==

--------------------------------------------------------------------------
memory 144 GB

molecule {
0 1
S 0.0000000000 0.0000000000 0.0000000000
O 0.0000000000 0.0000000000 1.4355085900
O 1.2508167239 0.0000000000 -0.7043737894
}

set dynamic_level 1
set basis aug-cc-pV(T+d)Z

optimize("wB97X-V")
frequencies("wB97X-V")
--------------------------------------------------------------------------

    Molecular point group: c2v
  Charge       = 0
  Multiplicity = 1
  Basis Set: AUG-CC-PV(T+D)Z
    Blend: AUG-CC-PV(T+D)Z
  Basis Set: (AUG-CC-PV(T+D)Z AUX)
    Blend: AUG-CC-PVTZ-JKFIT
  @DF-RKS Final Energy:  -548.59491621705411
    Total Energy =                       -548.5949162170541058
    Molecular point group: c2v
  Basis Set: AUG-CC-PV(T+D)Z
    Blend: AUG-CC-PV(T+D)Z
  Basis Set: (AUG-CC-PV(T+D)Z AUX)
    Blend: AUG-CC-PVTZ-JKFIT
  @DF-RKS Final Energy:  -548.59490694950091
    Total Energy =                       -548.5949069495009098
  Basis Set: AUG-CC-PV(T+D)Z
    Blend: AUG-CC-PV(T+D)Z
  Basis Set: (AUG-CC-PV(T+D)Z AUX)
    Blend: AUG-CC-PVTZ-JKFIT
  @DF-RKS Final Energy:  -548.59492472212082
    Total Energy =                       -548.5949247221208225
  Basis Set: AUG-CC-PV(T+D)Z
    Blend: AUG-CC-PV(T+D)Z
  Basis Set: (AUG-CC-PV(T+D)Z AUX)
    Blend: AUG-CC-PVTZ-JKFIT
  @DF-RKS Final Energy:  -548.59493085090639
    Total Energy =                       -548.5949308509063940
  @DF-RKS Final Energy:  -548.59490067598438
    Total Energy =                       -548.5949006759844906
  @DF-RKS Final Energy:  -548.59502379251830
    Total Energy =                       -548.5950237925185320
  @DF-RKS Final Energy:  -548.59501852970538
    Total Energy =                       -548.5950185297053849
  @DF-RKS Final Energy:  -548.59502827164829
    Total Energy =                       -548.5950282716482889
  @DF-RKS Final Energy:  -548.59502585694997
    Total Energy =                       -548.5950258569498601
  @DF-RKS Final Energy:  -548.59502079607807
    Total Energy =                       -548.5950207960779608
  @DF-RKS Final Energy:  -548.59503973808989
    Total Energy =                       -548.5950397380898949
  @DF-RKS Final Energy:  -548.59504009257307
    Total Energy =                       -548.5950400925730719
  @DF-RKS Final Energy:  -548.59503859954941
    Total Energy =                       -548.5950385995494116
  @DF-RKS Final Energy:  -548.59503888471693
    Total Energy =                       -548.5950388847168142
  @DF-RKS Final Energy:  -548.59503963847180
    Total Energy =                       -548.5950396384716896
  @DF-RKS Final Energy:  -548.59504013071535
    Total Energy =                       -548.5950401307154607
  @DF-RKS Final Energy:  -548.59503972303821
    Total Energy =                       -548.5950397230382123
  @DF-RKS Final Energy:  -548.59503974199572
    Total Energy =                       -548.5950397419956062
  @DF-RKS Final Energy:  -548.59503966209729
    Total Energy =                       -548.5950396620972924
  @DF-RKS Final Energy:  -548.59503964146256
    Total Energy =                       -548.5950396414625629
  **** Optimization is complete! (in 4 steps) ****
    Final optimized geometry and variables:
  @DF-RKS Final Energy:  -548.59504013071501
    Total Energy =                       -548.5950401307150059
  @DF-RKS Final Energy:  -548.59503972303889
    Total Energy =                       -548.5950397230390081
  @DF-RKS Final Energy:  -548.59503974199492
    Total Energy =                       -548.5950397419950377
  @DF-RKS Final Energy:  -548.59503966209707
    Total Energy =                       -548.5950396620971787
  @DF-RKS Final Energy:  -548.59503964146279
    Total Energy =                       -548.5950396414627903
  @DF-RKS Final Energy:  -548.59504013071501
    Total Energy =                       -548.5950401307150059
  @DF-RKS Final Energy:  -548.59503972303889
    Total Energy =                       -548.5950397230390081
  @DF-RKS Final Energy:  -548.59503974199515
    Total Energy =                       -548.5950397419952651
  @DF-RKS Final Energy:  -548.59503966209752
    Total Energy =                       -548.5950396620974061
  Basis Set: AUG-CC-PV(T+D)Z
    Blend: AUG-CC-PV(T+D)Z
  Basis Set: (AUG-CC-PV(T+D)Z AUX)
    Blend: AUG-CC-PVTZ-JKFIT
  @DF-RKS Final Energy:  -548.59503964146290
    Total Energy =                       -548.5950396414630177
  Basis Set: AUG-CC-PV(T+D)Z
    Blend: AUG-CC-PV(T+D)Z
  Basis Set: (AUG-CC-PV(T+D)Z AUX)
    Blend: AUG-CC-PVTZ-JKFIT
  @DF-RKS Final Energy:  -548.59503983885566
    Total Energy =                       -548.5950398388555413
  Multiplicity = 1
  Basis Set: AUG-CC-PV(T+D)Z
    Blend: AUG-CC-PV(T+D)Z
  Basis Set: (AUG-CC-PV(T+D)Z AUX)
    Blend: AUG-CC-PVTZ-JKFIT
  @DF-RKS Final Energy:  -548.59503984878450
    Total Energy =                       -548.5950398487846087
    Molecular point group: cs

    Geometry (in Angstrom), charge = 0, multiplicity = 1:

       Center              X                  Y                   Z               Mass
    ------------   -----------------  -----------------  -----------------  -----------------
         S            0.000000000000    -0.000305506408    -0.362663188066    31.972071174400
         O            0.000000000000     1.231697949310     0.362641670366    15.994914619570
         O            0.000000000000    -1.231087275676     0.362282065519    15.994914619570

  Charge       = 0
  Multiplicity = 1
  Basis Set: AUG-CC-PV(T+D)Z
    Blend: AUG-CC-PV(T+D)Z
  Basis Set: (AUG-CC-PV(T+D)Z AUX)
    Blend: AUG-CC-PVTZ-JKFIT

    Orbital Energies [Eh]
    ---------------------

    Doubly Occupied:

       1Ap   -89.074801     2Ap   -19.280836     3Ap   -19.280658
       4Ap    -8.211668     1App   -6.169335     5Ap    -6.166037
       6Ap    -6.162089     7Ap    -1.288813     8Ap    -1.192080
       9Ap    -0.761128     2App   -0.618076    10Ap    -0.617976
      11Ap    -0.612733     3App   -0.487469    12Ap    -0.476500
      13Ap    -0.445285

  @DF-RKS Final Energy:  -548.59503914232710

   => Energetics <=

    Nuclear Repulsion Energy =            108.5496141487865032
    One-Electron Energy =                -971.1037224330194704
    Two-Electron Energy =                 345.5113265454228326
    DFT Exchange-Correlation Energy =     -31.6848049068002133
    Empirical Dispersion Energy =           0.0000000000000000
    VV10 Nonlocal Energy =                  0.1325475032831454
    Total Energy =                       -548.5950391423272094

  Dipole Moment: [D]
     X:     0.0000      Y:    -0.0064      Z:    -1.7003     Total:     1.7003

  Vibration                       7                   8                   9
  Freq [cm^-1]                 545.3748           1247.7169           1445.4830
  Irrep                           A1                  A1                  B2
  Reduced mass [u]             18.6399             17.9321             20.3241
  Force const [mDyne/A]         3.2665             16.4480             25.0201

  ==> Thermochemistry Components <==

  Entropy, S
    Electronic S            0.000 [cal/(mol K)]        0.000 [J/(mol K)]       0.00000000 [mEh/K] (multiplicity = 1)
    Translational S        38.386 [cal/(mol K)]      160.607 [J/(mol K)]       0.06117186 [mEh/K] (mol. weight = 63.9619 [u], P = 101325.00 [Pa])
    Rotational S           20.208 [cal/(mol K)]       84.549 [J/(mol K)]       0.03220310 [mEh/K] (symmetry no. = 2)
    Vibrational S           0.603 [cal/(mol K)]        2.521 [J/(mol K)]       0.00096031 [mEh/K]
  Total S                  59.196 [cal/(mol K)]      247.677 [J/(mol K)]       0.09433526 [mEh/K]
  Correction S              0.000 [cal/(mol K)]        0.000 [J/(mol K)]       0.00000000 [mEh/K]

  Constant volume heat capacity, Cv
    Electronic Cv           0.000 [cal/(mol K)]        0.000 [J/(mol K)]       0.00000000 [mEh/K]
    Translational Cv        2.981 [cal/(mol K)]       12.472 [J/(mol K)]       0.00475022 [mEh/K]
    Rotational Cv           2.981 [cal/(mol K)]       12.472 [J/(mol K)]       0.00475022 [mEh/K]
    Vibrational Cv          1.416 [cal/(mol K)]        5.925 [J/(mol K)]       0.00225661 [mEh/K]
  Total Cv                  7.378 [cal/(mol K)]       30.868 [J/(mol K)]       0.01175705 [mEh/K]
  Correction Cv             0.000 [cal/(mol K)]        0.000 [J/(mol K)]       0.00000000 [mEh/K]

  Constant pressure heat capacity, Cp
    Electronic Cp           0.000 [cal/(mol K)]        0.000 [J/(mol K)]       0.00000000 [mEh/K]
    Translational Cp        4.968 [cal/(mol K)]       20.786 [J/(mol K)]       0.00791703 [mEh/K]
    Rotational Cp           2.981 [cal/(mol K)]       12.472 [J/(mol K)]       0.00475022 [mEh/K]
    Vibrational Cp          1.416 [cal/(mol K)]        5.925 [J/(mol K)]       0.00225661 [mEh/K]
  Total Cp                  9.365 [cal/(mol K)]       39.183 [J/(mol K)]       0.01492386 [mEh/K]
  Correction Cp             0.000 [cal/(mol K)]        0.000 [J/(mol K)]       0.00000000 [mEh/K]

  ==> Thermochemistry Energy Analysis <==

  Raw electronic energy, E0
  Total E0, Electronic energy at well bottom at 0 [K]                 -548.59504013 [Eh]

  Zero-point energy, ZPE_vib = Sum_i nu_i / 2
    Electronic ZPE          0.000 [kcal/mol]        0.000 [kJ/mol]       0.00000000 [Eh]
    Translational ZPE       0.000 [kcal/mol]        0.000 [kJ/mol]       0.00000000 [Eh]
    Rotational ZPE          0.000 [kcal/mol]        0.000 [kJ/mol]       0.00000000 [Eh]
    Vibrational ZPE         4.630 [kcal/mol]       19.371 [kJ/mol]       0.00737802 [Eh]        1619.287 [cm^-1]
  Correction ZPE            4.630 [kcal/mol]       19.371 [kJ/mol]       0.00737802 [Eh]        1619.287 [cm^-1]
  Total ZPE, Electronic energy at 0 [K]                               -548.58766211 [Eh]

  Thermal Energy, E (includes ZPE)
    Electronic E            0.000 [kcal/mol]        0.000 [kJ/mol]       0.00000000 [Eh]
    Translational E         0.889 [kcal/mol]        3.718 [kJ/mol]       0.00141628 [Eh]
    Rotational E            0.889 [kcal/mol]        3.718 [kJ/mol]       0.00141628 [Eh]
    Vibrational E           4.763 [kcal/mol]       19.929 [kJ/mol]       0.00759065 [Eh]
  Correction E              6.541 [kcal/mol]       27.366 [kJ/mol]       0.01042321 [Eh]
  Total E, Electronic energy at  298.15 [K]                           -548.58461692 [Eh]

  Enthalpy, H_trans = E_trans + k_B * T
    Electronic H            0.000 [kcal/mol]        0.000 [kJ/mol]       0.00000000 [Eh]
    Translational H         1.481 [kcal/mol]        6.197 [kJ/mol]       0.00236046 [Eh]
    Rotational H            0.889 [kcal/mol]        3.718 [kJ/mol]       0.00141628 [Eh]
    Vibrational H           4.763 [kcal/mol]       19.929 [kJ/mol]       0.00759065 [Eh]
  Correction H              7.133 [kcal/mol]       29.845 [kJ/mol]       0.01136739 [Eh]
  Total H, Enthalpy at  298.15 [K]                                    -548.58367274 [Eh]

  Gibbs free energy, G = H - T * S
    Electronic G            0.000 [kcal/mol]        0.000 [kJ/mol]       0.00000000 [Eh]
    Translational G        -9.964 [kcal/mol]      -41.687 [kJ/mol]      -0.01587793 [Eh]
    Rotational G           -5.136 [kcal/mol]      -21.490 [kJ/mol]      -0.00818508 [Eh]
    Vibrational G           4.584 [kcal/mol]       19.178 [kJ/mol]       0.00730434 [Eh]
  Correction G            -10.516 [kcal/mol]      -44.000 [kJ/mol]      -0.01675867 [Eh]
  Total G, Free enthalpy at  298.15 [K]                               -548.61179880 [Eh]

*** Psi4 exiting successfully. Buy a developer a beer!
