                               Psi4 1.3.2 release

  ==> Input File <==

--------------------------------------------------------------------------
memory 144 GB

molecule {
0 1
C -0.0479167327 0.6682939561 0.0000000000
H -1.0907101856 0.9776732069 0.0000000000
H 0.4344161461 1.0815239129 0.8898543791
H 0.4344161461 1.0815239129 -0.8898543791
O -0.0410920225 -0.7509554452 0.0000000000
H 0.8712936485 -1.0420305436 0.0000000000
}

set dynamic_level 1
set basis aug-cc-pV(T+d)Z

optimize("wB97X-V")
frequencies("wB97X-V")
--------------------------------------------------------------------------

    Molecular point group: cs
  Charge       = 0
  Multiplicity = 1
  Basis Set: AUG-CC-PV(T+D)Z
    Blend: AUG-CC-PV(T+D)Z
  Basis Set: (AUG-CC-PV(T+D)Z AUX)
    Blend: AUG-CC-PVTZ-JKFIT
  @DF-RKS Final Energy:  -115.73017923641774
    Total Energy =                       -115.7301792364177402
    Molecular point group: cs
  Basis Set: AUG-CC-PV(T+D)Z
    Blend: AUG-CC-PV(T+D)Z
  Basis Set: (AUG-CC-PV(T+D)Z AUX)
    Blend: AUG-CC-PVTZ-JKFIT
  @DF-RKS Final Energy:  -115.73018084606281
    Total Energy =                       -115.7301808460628081
  Basis Set: AUG-CC-PV(T+D)Z
    Blend: AUG-CC-PV(T+D)Z
  Basis Set: (AUG-CC-PV(T+D)Z AUX)
    Blend: AUG-CC-PVTZ-JKFIT
  @DF-RKS Final Energy:  -115.73017366026019
    Total Energy =                       -115.7301736602601920
  Basis Set: AUG-CC-PV(T+D)Z
    Blend: AUG-CC-PV(T+D)Z
  Basis Set: (AUG-CC-PV(T+D)Z AUX)
    Blend: AUG-CC-PVTZ-JKFIT
  @DF-RKS Final Energy:  -115.73017888203509
    Total Energy =                       -115.7301788820350765
  @DF-RKS Final Energy:  -115.73017795194951
    Total Energy =                       -115.7301779519495142
  @DF-RKS Final Energy:  -115.73018713946132
    Total Energy =                       -115.7301871394613215
  @DF-RKS Final Energy:  -115.73016379932639
    Total Energy =                       -115.7301637993263910
  @DF-RKS Final Energy:  -115.73017726464761
    Total Energy =                       -115.7301772646476223
  @DF-RKS Final Energy:  -115.73017889497099
    Total Energy =                       -115.7301788949709902
  @DF-RKS Final Energy:  -115.73018004322972
    Total Energy =                       -115.7301800432297227
  @DF-RKS Final Energy:  -115.73017602573834
    Total Energy =                       -115.7301760257383592
  @DF-RKS Final Energy:  -115.73017228764888
    Total Energy =                       -115.7301722876488839
  @DF-RKS Final Energy:  -115.73018405624236
    Total Energy =                       -115.7301840562423507
  @DF-RKS Final Energy:  -115.73016432850972
    Total Energy =                       -115.7301643285097157
  @DF-RKS Final Energy:  -115.73018759206958
    Total Energy =                       -115.7301875920695693
  @DF-RKS Final Energy:  -115.73018158449321
    Total Energy =                       -115.7301815844932236
  @DF-RKS Final Energy:  -115.73016242374170
    Total Energy =                       -115.7301624237416888
  @DF-RKS Final Energy:  -115.73021369134123
    Total Energy =                       -115.7302136913412340
  @DF-RKS Final Energy:  -115.73021016346357
    Total Energy =                       -115.7302101634635676
  @DF-RKS Final Energy:  -115.73021329683277
    Total Energy =                       -115.7302132968327726
  **** Optimization is complete! (in 3 steps) ****
    Final optimized geometry and variables:
  @DF-RKS Final Energy:  -115.73020816239642
    Total Energy =                       -115.7302081623964227
  @DF-RKS Final Energy:  -115.73020791215504
    Total Energy =                       -115.7302079121550378
  @DF-RKS Final Energy:  -115.73020554252878
    Total Energy =                       -115.7302055425287932
  @DF-RKS Final Energy:  -115.73020611597541
    Total Energy =                       -115.7302061159754061
  @DF-RKS Final Energy:  -115.73021430553358
    Total Energy =                       -115.7302143055335790
  @DF-RKS Final Energy:  -115.73021485494944
    Total Energy =                       -115.7302148549494376
  @DF-RKS Final Energy:  -115.73021519026223
    Total Energy =                       -115.7302151902622285
  @DF-RKS Final Energy:  -115.73021419394163
    Total Energy =                       -115.7302141939416202
  @DF-RKS Final Energy:  -115.73021161858637
    Total Energy =                       -115.7302116185863667
  @DF-RKS Final Energy:  -115.73021161967392
    Total Energy =                       -115.7302116196739235
  @DF-RKS Final Energy:  -115.73021513961152
    Total Energy =                       -115.7302151396115164
  @DF-RKS Final Energy:  -115.73021514426023
    Total Energy =                       -115.7302151442602280
  @DF-RKS Final Energy:  -115.73021572924441
    Total Energy =                       -115.7302157292444207
  @DF-RKS Final Energy:  -115.73021573389204
    Total Energy =                       -115.7302157338920381
  @DF-RKS Final Energy:  -115.73021493886597
    Total Energy =                       -115.7302149388659842
  @DF-RKS Final Energy:  -115.73021493732810
    Total Energy =                       -115.7302149373280997
  Basis Set: AUG-CC-PV(T+D)Z
    Blend: AUG-CC-PV(T+D)Z
  Basis Set: (AUG-CC-PV(T+D)Z AUX)
    Blend: AUG-CC-PVTZ-JKFIT
  @DF-RKS Final Energy:  -115.73021410942184
    Total Energy =                       -115.7302141094218371
  Basis Set: AUG-CC-PV(T+D)Z
    Blend: AUG-CC-PV(T+D)Z
  Basis Set: (AUG-CC-PV(T+D)Z AUX)
    Blend: AUG-CC-PVTZ-JKFIT
  @DF-RKS Final Energy:  -115.73021410852779
    Total Energy =                       -115.7302141085277754
  Multiplicity = 1
  Basis Set: AUG-CC-PV(T+D)Z
    Blend: AUG-CC-PV(T+D)Z
  Basis Set: (AUG-CC-PV(T+D)Z AUX)
    Blend: AUG-CC-PVTZ-JKFIT
  @DF-RKS Final Energy:  -115.73021089760165
    Total Energy =                       -115.7302108976016513
    Molecular point group: c1

    Geometry (in Angstrom), charge = 0, multiplicity = 1:

       Center              X                  Y                   Z               Mass
    ------------   -----------------  -----------------  -----------------  -----------------
         C           -0.028612762411     0.727872531472    -0.000000000000    12.000000000000
         H           -1.073278570894     1.040328417817    -0.000000000000     1.007825032230
         H            0.455625263628     1.136664217316     0.891880628292     1.007825032230
         H            0.457891071578     1.140480650522    -0.893931637603     1.007825032230
         O           -0.024256865961    -0.692280582412     0.000201031553    15.994914619570
         H            0.885423561342    -0.997131603302    -0.001139507316     1.007825032230

  Charge       = 0
  Multiplicity = 1
  Basis Set: AUG-CC-PV(T+D)Z
    Blend: AUG-CC-PV(T+D)Z
  Basis Set: (AUG-CC-PV(T+D)Z AUX)
    Blend: AUG-CC-PVTZ-JKFIT

    Orbital Energies [Eh]
    ---------------------

    Doubly Occupied:

       1A    -19.217892     2A    -10.311884     3A     -1.151800
       4A     -0.811466     5A     -0.622615     6A     -0.554456
       7A     -0.537331     8A     -0.446523     9A     -0.386717

  @DF-RKS Final Energy:  -115.73021089967853

   => Energetics <=

    Nuclear Repulsion Energy =             40.2946766603697100
    One-Electron Energy =                -236.8780558296020615
    Two-Electron Energy =                  91.4852554062939447
    DFT Exchange-Correlation Energy =     -10.7057016636971039
    Empirical Dispersion Energy =           0.0000000000000000
    VV10 Nonlocal Energy =                  0.0736145269569863
    Total Energy =                       -115.7302108996785250

  Dipole Moment: [D]
     X:     1.3644      Y:     0.9796      Z:     0.0005     Total:     1.6797

  Vibration                       7                   8                   9
  Freq [cm^-1]                 280.6950           1059.0354           1096.7872
  Irrep                          App                  Ap                  Ap
  Reduced mass [u]              1.0698              1.3429              3.1590
  Force const [mDyne/A]         0.0497              0.8874              2.2389

  Vibration                       10                  11                  12
  Freq [cm^-1]                1178.0766           1371.2787           1481.3577
  Irrep                          App                  Ap                  Ap
  Reduced mass [u]              1.2737              1.2906              1.1469
  Force const [mDyne/A]         1.0415              1.4299              1.4828

  Vibration                       13                  14                  15
  Freq [cm^-1]                1498.8056           1510.5694           3020.9092
  Irrep                          App                  Ap                  Ap
  Reduced mass [u]              1.0439              1.0406              1.0349
  Force const [mDyne/A]         1.3816              1.3990              5.5645

  Vibration                       16                  17                  18
  Freq [cm^-1]                3077.5788           3137.5300           3885.8328
  Irrep                          App                  Ap                  Ap
  Reduced mass [u]              1.1061              1.0994              1.0667
  Force const [mDyne/A]         6.1725              6.3764              9.4895

  ==> Thermochemistry Components <==

  Entropy, S
    Electronic S            0.000 [cal/(mol K)]        0.000 [J/(mol K)]       0.00000000 [mEh/K] (multiplicity = 1)
    Translational S        36.324 [cal/(mol K)]      151.980 [J/(mol K)]       0.05788598 [mEh/K] (mol. weight = 32.0262 [u], P = 101325.00 [Pa])
    Rotational S           18.987 [cal/(mol K)]       79.440 [J/(mol K)]       0.03025724 [mEh/K] (symmetry no. = 1)
    Vibrational S           1.768 [cal/(mol K)]        7.396 [J/(mol K)]       0.00281691 [mEh/K]
  Total S                  57.078 [cal/(mol K)]      238.816 [J/(mol K)]       0.09096013 [mEh/K]
  Correction S              0.000 [cal/(mol K)]        0.000 [J/(mol K)]       0.00000000 [mEh/K]

  Constant volume heat capacity, Cv
    Electronic Cv           0.000 [cal/(mol K)]        0.000 [J/(mol K)]       0.00000000 [mEh/K]
    Translational Cv        2.981 [cal/(mol K)]       12.472 [J/(mol K)]       0.00475022 [mEh/K]
    Rotational Cv           2.981 [cal/(mol K)]       12.472 [J/(mol K)]       0.00475022 [mEh/K]
    Vibrational Cv          2.873 [cal/(mol K)]       12.021 [J/(mol K)]       0.00457854 [mEh/K]
  Total Cv                  8.835 [cal/(mol K)]       36.964 [J/(mol K)]       0.01407898 [mEh/K]
  Correction Cv             0.000 [cal/(mol K)]        0.000 [J/(mol K)]       0.00000000 [mEh/K]

  Constant pressure heat capacity, Cp
    Electronic Cp           0.000 [cal/(mol K)]        0.000 [J/(mol K)]       0.00000000 [mEh/K]
    Translational Cp        4.968 [cal/(mol K)]       20.786 [J/(mol K)]       0.00791703 [mEh/K]
    Rotational Cp           2.981 [cal/(mol K)]       12.472 [J/(mol K)]       0.00475022 [mEh/K]
    Vibrational Cp          2.873 [cal/(mol K)]       12.021 [J/(mol K)]       0.00457854 [mEh/K]
  Total Cp                 10.822 [cal/(mol K)]       45.279 [J/(mol K)]       0.01724579 [mEh/K]
  Correction Cp             0.000 [cal/(mol K)]        0.000 [J/(mol K)]       0.00000000 [mEh/K]

  ==> Thermochemistry Energy Analysis <==

  Raw electronic energy, E0
  Total E0, Electronic energy at well bottom at 0 [K]                 -115.73021620 [Eh]

  Zero-point energy, ZPE_vib = Sum_i nu_i / 2
    Electronic ZPE          0.000 [kcal/mol]        0.000 [kJ/mol]       0.00000000 [Eh]
    Translational ZPE       0.000 [kcal/mol]        0.000 [kJ/mol]       0.00000000 [Eh]
    Rotational ZPE          0.000 [kcal/mol]        0.000 [kJ/mol]       0.00000000 [Eh]
    Vibrational ZPE        32.306 [kcal/mol]      135.169 [kJ/mol]       0.05148307 [Eh]       11299.228 [cm^-1]
  Correction ZPE           32.306 [kcal/mol]      135.169 [kJ/mol]       0.05148307 [Eh]       11299.228 [cm^-1]
  Total ZPE, Electronic energy at 0 [K]                               -115.67873312 [Eh]

  Thermal Energy, E (includes ZPE)
    Electronic E            0.000 [kcal/mol]        0.000 [kJ/mol]       0.00000000 [Eh]
    Translational E         0.889 [kcal/mol]        3.718 [kJ/mol]       0.00141628 [Eh]
    Rotational E            0.889 [kcal/mol]        3.718 [kJ/mol]       0.00141628 [Eh]
    Vibrational E          32.646 [kcal/mol]      136.589 [kJ/mol]       0.05202408 [Eh]
  Correction E             34.423 [kcal/mol]      144.026 [kJ/mol]       0.05485664 [Eh]
  Total E, Electronic energy at  298.15 [K]                           -115.67535956 [Eh]

  Enthalpy, H_trans = E_trans + k_B * T
    Electronic H            0.000 [kcal/mol]        0.000 [kJ/mol]       0.00000000 [Eh]
    Translational H         1.481 [kcal/mol]        6.197 [kJ/mol]       0.00236046 [Eh]
    Rotational H            0.889 [kcal/mol]        3.718 [kJ/mol]       0.00141628 [Eh]
    Vibrational H          32.646 [kcal/mol]      136.589 [kJ/mol]       0.05202408 [Eh]
  Correction H             35.016 [kcal/mol]      146.505 [kJ/mol]       0.05580082 [Eh]
  Total H, Enthalpy at  298.15 [K]                                    -115.67441538 [Eh]

  Gibbs free energy, G = H - T * S
    Electronic G            0.000 [kcal/mol]        0.000 [kJ/mol]       0.00000000 [Eh]
    Translational G        -9.349 [kcal/mol]      -39.115 [kJ/mol]      -0.01489824 [Eh]
    Rotational G           -4.772 [kcal/mol]      -19.967 [kJ/mol]      -0.00760492 [Eh]
    Vibrational G          32.119 [kcal/mol]      134.384 [kJ/mol]       0.05118422 [Eh]
  Correction G             17.998 [kcal/mol]       75.302 [kJ/mol]       0.02868106 [Eh]
  Total G, Free enthalpy at  298.15 [K]                               -115.70153514 [Eh]

*** Psi4 exiting successfully. Buy a developer a beer!
