                               Psi4 1.3.2 release

  ==> Input File <==

--------------------------------------------------------------------------
memory 144 GB

molecule {
0 3
S 0.0000000000 0.0000000000 0.0000000000
S 0.0000000000 0.0000000000 1.8968845900
}

set reference uks
set dynamic_level 1
set basis aug-cc-pV(T+d)Z

optimize("wB97X-V")
frequencies("wB97X-V")
--------------------------------------------------------------------------

    Molecular point group: d2h
  Charge       = 0
  Multiplicity = 3
  Basis Set: AUG-CC-PV(T+D)Z
    Blend: AUG-CC-PV(T+D)Z
  Basis Set: (AUG-CC-PV(T+D)Z AUX)
    Blend: AUG-CC-PVTZ-JKFIT
  @DF-UKS Final Energy:  -796.27810847980675
    Total Energy =                       -796.2781084798065194
    Molecular point group: d2h
  Basis Set: AUG-CC-PV(T+D)Z
    Blend: AUG-CC-PV(T+D)Z
  Basis Set: (AUG-CC-PV(T+D)Z AUX)
    Blend: AUG-CC-PVTZ-JKFIT
  @DF-UKS Final Energy:  -796.27809114610977
    Total Energy =                       -796.2780911461097730
  Basis Set: AUG-CC-PV(T+D)Z
    Blend: AUG-CC-PV(T+D)Z
  Basis Set: (AUG-CC-PV(T+D)Z AUX)
    Blend: AUG-CC-PVTZ-JKFIT
  @DF-UKS Final Energy:  -796.27812528755385
    Total Energy =                       -796.2781252875536211
  Basis Set: AUG-CC-PV(T+D)Z
    Blend: AUG-CC-PV(T+D)Z
  Basis Set: (AUG-CC-PV(T+D)Z AUX)
    Blend: AUG-CC-PVTZ-JKFIT
  @DF-UKS Final Energy:  -796.27835321017619
    Total Energy =                       -796.2783532101760784
  @DF-UKS Final Energy:  -796.27834783021558
    Total Energy =                       -796.2783478302155800
  @DF-UKS Final Energy:  -796.27835802811182
    Total Energy =                       -796.2783580281118248
  @DF-UKS Final Energy:  -796.27837596805296
    Total Energy =                       -796.2783759680527282
  @DF-UKS Final Energy:  -796.27837593099252
    Total Energy =                       -796.2783759309927518
  @DF-UKS Final Energy:  -796.27837542337659
    Total Energy =                       -796.2783754233765876
  **** Optimization is complete! (in 3 steps) ****
    Final optimized geometry and variables:
  @DF-UKS Final Energy:  -796.27837596805284
    Total Energy =                       -796.2783759680526146
  @DF-UKS Final Energy:  -796.27837593099275
    Total Energy =                       -796.2783759309926381
  Basis Set: AUG-CC-PV(T+D)Z
    Blend: AUG-CC-PV(T+D)Z
  Basis Set: (AUG-CC-PV(T+D)Z AUX)
    Blend: AUG-CC-PVTZ-JKFIT
  @DF-UKS Final Energy:  -796.27837542337636
    Total Energy =                       -796.2783754233764739
  Basis Set: AUG-CC-PV(T+D)Z
    Blend: AUG-CC-PV(T+D)Z
  Basis Set: (AUG-CC-PV(T+D)Z AUX)
    Blend: AUG-CC-PVTZ-JKFIT
  @DF-UKS Final Energy:  -796.27837596805284
    Total Energy =                       -796.2783759680527282
  Multiplicity = 3
  Basis Set: AUG-CC-PV(T+D)Z
    Blend: AUG-CC-PV(T+D)Z
  Basis Set: (AUG-CC-PV(T+D)Z AUX)
    Blend: AUG-CC-PVTZ-JKFIT
  @DF-UKS Final Energy:  -796.27837593099275
    Total Energy =                       -796.2783759309930929
    Molecular point group: d2h

    Geometry (in Angstrom), charge = 0, multiplicity = 3:

       Center              X                  Y                   Z               Mass
    ------------   -----------------  -----------------  -----------------  -----------------
         S            0.000000000000     0.000000000000    -0.937759290922    31.972071174400
         S            0.000000000000     0.000000000000     0.937759290922    31.972071174400

  Charge       = 0
  Multiplicity = 3
  Basis Set: AUG-CC-PV(T+D)Z
    Blend: AUG-CC-PV(T+D)Z
  Basis Set: (AUG-CC-PV(T+D)Z AUX)
    Blend: AUG-CC-PVTZ-JKFIT

    Orbital Energies [Eh]
    ---------------------

    Alpha Occupied:

       1B1u  -88.944549     1Ag   -88.944542     2Ag    -8.098142
       2B1u   -8.097939     1B3u   -6.052749     1B2u   -6.052749
       1B2g   -6.052693     1B3g   -6.052693     3Ag    -6.052396
       3B1u   -6.051507     4Ag    -0.977829     4B1u   -0.756175
       5Ag    -0.503680     2B2u   -0.492695     2B3u   -0.492695
       2B3g   -0.342927     2B2g   -0.342927

    Alpha Virtual:

       5B1u    0.045089     6Ag     0.084756     3B2u    0.089111
       3B3u    0.089111     7Ag     0.101924     6B1u    0.109793
       3B2g    0.116309     3B3g    0.116309     8Ag     0.191112
       1B1g    0.191112     7B1u    0.211111     4B3u    0.239043
       4B2u    0.239043     9Ag     0.278700     1Au     0.303259
       8B1u    0.303260     4B2g    0.374331     4B3g    0.374331
       9B1u    0.384472     5B2u    0.464014     5B3u    0.464014
       6B2u    0.541215     6B3u    0.541215    10Ag     0.555654
       2B1g    0.555655    11Ag     0.562233    12Ag     0.570000
      10B1u    0.571147     5B2g    0.589477     5B3g    0.589477
       2Au     0.640052    11B1u    0.640055    13Ag     0.680374
       7B2u    0.721770     7B3u    0.721770     6B2g    0.740457
       6B3g    0.740457     3B1g    0.802045    14Ag     0.802052
       7B3g    0.879149     7B2g    0.879149    12B1u    0.887981
       8B2u    1.052385     8B3u    1.052385    13B1u    1.081117
       3Au     1.081120    14B1u    1.129559     8B2g    1.214799
       8B3g    1.214799    15Ag     1.311357    15B1u    1.422038
      16Ag     1.689153     4B1g    1.689157     9B3u    1.745676
       9B2u    1.745676    16B1u    1.760778    17B1u    1.774233
       4Au     1.774240     9B2g    1.904336     9B3g    1.904336
      17Ag     1.940011    18Ag     2.023981     5B1g    2.033188
      19Ag     2.033196    10B2u    2.039258    10B3u    2.039258
      11B2u    2.106112    11B3u    2.106112    12B2u    2.110273
      12B3u    2.110273    10B3g    2.184609    10B2g    2.184609
       5Au     2.357981    18B1u    2.357985    11B2g    2.370315
      11B3g    2.370315    19B1u    2.485029    12B2g    2.708992
      12B3g    2.708992    20Ag     2.716917    20B1u    3.643345
      21Ag     4.661261    21B1u    5.340595     6B1g    6.841982
      22Ag     6.842000    13B3u    6.873479    13B2u    6.873479
       6Au     6.878919    22B1u    6.878938    23Ag     6.979830
      13B2g    7.022623    13B3g    7.022623    23B1u    7.338604

    Beta Occupied:

       1B1u  -88.939071     1Ag   -88.939067     2Ag    -8.092927
       2B1u   -8.092648     3Ag    -6.048962     3B1u   -6.048062
       1B3u   -6.041624     1B2u   -6.041624     1B2g   -6.041551
       1B3g   -6.041551     4Ag    -0.949163     4B1u   -0.688283
       5Ag    -0.478890     2B2u   -0.430459     2B3u   -0.430459

    Beta Virtual:

       2B2g   -0.055714     2B3g   -0.055714     5B1u    0.050672
       6Ag     0.087422     3B2u    0.091659     3B3u    0.091659
       7Ag     0.102994     6B1u    0.123786     3B2g    0.123894
       3B3g    0.123894     8Ag     0.200893     1B1g    0.200893
       7B1u    0.217048     4B3u    0.259898     4B2u    0.259898
       9Ag     0.284730     1Au     0.320479     8B1u    0.320480
       4B2g    0.382728     4B3g    0.382728     9B1u    0.389790
       5B2u    0.472255     5B3u    0.472255     6B2u    0.562507
       6B3u    0.562507    10Ag     0.567038    10B1u    0.578319
      11Ag     0.578324    12Ag     0.578325     2B1g    0.578326
       5B2g    0.600792     5B3g    0.600792     2Au     0.679086
      11B1u    0.679089    13Ag     0.691464     7B2u    0.726776
       7B3u    0.726776     6B2g    0.761478     6B3g    0.761478
       3B1g    0.812415    14Ag     0.812422     7B3g    0.887231
       7B2g    0.887231    12B1u    0.901819     8B2u    1.058869
       8B3u    1.058869    13B1u    1.087376     3Au     1.087382
      14B1u    1.135726     8B2g    1.225604     8B3g    1.225604
      15Ag     1.330015    15B1u    1.440688    16Ag     1.716425
       4B1g    1.716426     9B3u    1.756749     9B2u    1.756749
      16B1u    1.770569    17B1u    1.799816     4Au     1.799818
       9B2g    1.927308     9B3g    1.927308    17Ag     1.945677
      18Ag     2.035514     5B1g    2.054029    19Ag     2.054036
      10B2u    2.059304    10B3u    2.059304    11B2u    2.136395
      11B3u    2.136395    12B2u    2.143983    12B3u    2.143983
      10B3g    2.222486    10B2g    2.222486     5Au     2.384088
      18B1u    2.384090    11B2g    2.388093    11B3g    2.388093
      19B1u    2.500597    20Ag     2.728325    12B2g    2.729682
      12B3g    2.729682    20B1u    3.650475    21Ag     4.676797
      21B1u    5.354109     6B1g    6.851715    22Ag     6.851734
      13B3u    6.878630    13B2u    6.878630     6Au     6.888865
      22B1u    6.888884    23Ag     6.983156    13B2g    7.028211
      13B3g    7.028211    23B1u    7.344055

    Final Occupation by Irrep:
             Ag   B1g   B2g   B3g    Au   B1u   B2u   B3u
    DOCC [     5,    0,    1,    1,    0,    4,    2,    2 ]
    SOCC [     0,    0,    1,    1,    0,    0,    0,    0 ]

  @DF-UKS Final Energy:  -796.27837542337636

   => Energetics <=

    Nuclear Repulsion Energy =             72.2303512441576459
    One-Electron Energy =               -1243.0059787656996377
    Two-Electron Energy =                 413.0824870408656579
    DFT Exchange-Correlation Energy =     -38.7188290529170160
    Empirical Dispersion Energy =           0.0000000000000000
    VV10 Nonlocal Energy =                  0.1335941102169871
    Total Energy =                       -796.2783754233763602

  UHF NO Occupations:
  HONO-2 :    2B3u 1.9968621
  HONO-1 :    2B2g 1.0000000
  HONO-0 :    2B3g 1.0000000
  LUNO+0 :    3B3u 0.0031379
  LUNO+1 :    3B2u 0.0031379
  LUNO+2 :    5B1u 0.0007988
  LUNO+3 :    6 Ag 0.0005332

Computation Completed

Properties will be evaluated at   0.000000,   0.000000,   0.000000 [a0]

Properties computed using the SCF density matrix

  Nuclear Dipole Moment: [e a0]
     X:     0.0000      Y:     0.0000      Z:     0.0000

  Electronic Dipole Moment: [e a0]
     X:     0.0000      Y:     0.0000      Z:     0.0000

  Dipole Moment: [e a0]
     X:     0.0000      Y:     0.0000      Z:     0.0000     Total:     0.0000

  Dipole Moment: [D]
     X:     0.0000      Y:     0.0000      Z:     0.0000     Total:     0.0000

*** tstop() called on bp1-compute00190.data.bp.acrc.priv at Tue Apr 27 17:28:48 2021
Module time:
	user time   =     138.49 seconds =       2.31 minutes
	system time =       4.96 seconds =       0.08 minutes
	total time  =          6 seconds =       0.10 minutes
Total time:
	user time   =    1729.37 seconds =      28.82 minutes
	system time =      68.62 seconds =       1.14 minutes
	total time  =         76 seconds =       1.27 minutes

         ----------------------------------------------------------
                                   FINDIF
                     R. A. King and Jonathon Misiewicz
         ---------------------------------------------------------

  Computing second-derivative from energies using projected,
  symmetry-adapted, cartesian coordinates.

  3 energies passed in, including the reference geometry.
    Using 3-point formula.
    Energy without displacement: -796.2783759681
    Check energies below for precision!
    0: -1 :      -796.2783759310
    0: 1  :      -796.2783754234

-------------------------------------------------------------

  ==> Harmonic Vibrational Analysis <==

  non-mass-weighted Hessian:       Symmetric? True   Hermitian? True   Lin Dep Dim?  5 (0)
  projection of translations (True) and rotations (True) removed 5 degrees of freedom (5)
  total projector:                 Symmetric? True   Hermitian? True   Lin Dep Dim?  5 (5)
  mass-weighted Hessian:           Symmetric? True   Hermitian? True   Lin Dep Dim?  5 (0)
  pre-proj  low-frequency mode:    0.0000  [cm^-1]
  pre-proj  low-frequency mode:    0.0000  [cm^-1]
  pre-proj  low-frequency mode:    0.0000  [cm^-1]
  pre-proj  low-frequency mode:    0.0000  [cm^-1]
  pre-proj  low-frequency mode:    0.0000  [cm^-1]
  pre-proj  all modes:['0.0000' '0.0000' '0.0000' '0.0000' '0.0000' '784.1469']
  projected mass-weighted Hessian: Symmetric? True   Hermitian? True   Lin Dep Dim?  5 (5)
  post-proj low-frequency mode:    0.0000i [cm^-1] (TR)
  post-proj low-frequency mode:    0.0000  [cm^-1] (TR)
  post-proj low-frequency mode:    0.0000  [cm^-1] (TR)
  post-proj low-frequency mode:    0.0000  [cm^-1] (TR)
  post-proj low-frequency mode:    0.0000  [cm^-1] (TR)
  post-proj  all modes:['0.0000i' '0.0000' '0.0000' '0.0000' '0.0000' '784.1469']

  Vibration                       6
  Freq [cm^-1]                 784.1469
  Irrep                           Ag
  Reduced mass [u]             31.9721
  Force const [mDyne/A]        11.5829
  Turning point v=0 [a0]        0.0693
  RMS dev v=0 [a0 u^1/2]        0.2771
  Char temp [K]               1128.2128
  ----------------------------------------------------------------------------------
      1   S                0.00  0.00  0.71
      2   S                0.00  0.00 -0.71

  ==> Thermochemistry Components <==

  Entropy, S
    Electronic S            2.183 [cal/(mol K)]        9.134 [J/(mol K)]       0.00347910 [mEh/K] (multiplicity = 3)
    Translational S        38.385 [cal/(mol K)]      160.603 [J/(mol K)]       0.06117054 [mEh/K] (mol. weight = 63.9441 [u], P = 101325.00 [Pa])
    Rotational S           13.604 [cal/(mol K)]       56.921 [J/(mol K)]       0.02168012 [mEh/K] (symmetry no. = 2)
    Vibrational S           0.221 [cal/(mol K)]        0.923 [J/(mol K)]       0.00035154 [mEh/K]
  Total S                  54.393 [cal/(mol K)]      227.582 [J/(mol K)]       0.08668130 [mEh/K]
  Correction S              0.000 [cal/(mol K)]        0.000 [J/(mol K)]       0.00000000 [mEh/K]

  Constant volume heat capacity, Cv
    Electronic Cv           0.000 [cal/(mol K)]        0.000 [J/(mol K)]       0.00000000 [mEh/K]
    Translational Cv        2.981 [cal/(mol K)]       12.472 [J/(mol K)]       0.00475022 [mEh/K]
    Rotational Cv           1.987 [cal/(mol K)]        8.314 [J/(mol K)]       0.00316681 [mEh/K]
    Vibrational Cv          0.677 [cal/(mol K)]        2.834 [J/(mol K)]       0.00107924 [mEh/K]
  Total Cv                  5.645 [cal/(mol K)]       23.620 [J/(mol K)]       0.00899626 [mEh/K]
  Correction Cv             0.000 [cal/(mol K)]        0.000 [J/(mol K)]       0.00000000 [mEh/K]

  Constant pressure heat capacity, Cp
    Electronic Cp           0.000 [cal/(mol K)]        0.000 [J/(mol K)]       0.00000000 [mEh/K]
    Translational Cp        4.968 [cal/(mol K)]       20.786 [J/(mol K)]       0.00791703 [mEh/K]
    Rotational Cp           1.987 [cal/(mol K)]        8.314 [J/(mol K)]       0.00316681 [mEh/K]
    Vibrational Cp          0.677 [cal/(mol K)]        2.834 [J/(mol K)]       0.00107924 [mEh/K]
  Total Cp                  7.632 [cal/(mol K)]       31.934 [J/(mol K)]       0.01216307 [mEh/K]
  Correction Cp             0.000 [cal/(mol K)]        0.000 [J/(mol K)]       0.00000000 [mEh/K]

  ==> Thermochemistry Energy Analysis <==

  Raw electronic energy, E0
  Total E0, Electronic energy at well bottom at 0 [K]                 -796.27837597 [Eh]

  Zero-point energy, ZPE_vib = Sum_i nu_i / 2
    Electronic ZPE          0.000 [kcal/mol]        0.000 [kJ/mol]       0.00000000 [Eh]
    Translational ZPE       0.000 [kcal/mol]        0.000 [kJ/mol]       0.00000000 [Eh]
    Rotational ZPE          0.000 [kcal/mol]        0.000 [kJ/mol]       0.00000000 [Eh]
    Vibrational ZPE         1.121 [kcal/mol]        4.690 [kJ/mol]       0.00178642 [Eh]         392.073 [cm^-1]
  Correction ZPE            1.121 [kcal/mol]        4.690 [kJ/mol]       0.00178642 [Eh]         392.073 [cm^-1]
  Total ZPE, Electronic energy at 0 [K]                               -796.27658955 [Eh]

  Thermal Energy, E (includes ZPE)
    Electronic E            0.000 [kcal/mol]        0.000 [kJ/mol]       0.00000000 [Eh]
    Translational E         0.889 [kcal/mol]        3.718 [kJ/mol]       0.00141628 [Eh]
    Rotational E            0.592 [kcal/mol]        2.479 [kJ/mol]       0.00094418 [Eh]
    Vibrational E           1.173 [kcal/mol]        4.908 [kJ/mol]       0.00186952 [Eh]
  Correction E              2.654 [kcal/mol]       11.106 [kJ/mol]       0.00422998 [Eh]
  Total E, Electronic energy at  298.15 [K]                           -796.27414599 [Eh]

  Enthalpy, H_trans = E_trans + k_B * T
    Electronic H            0.000 [kcal/mol]        0.000 [kJ/mol]       0.00000000 [Eh]
    Translational H         1.481 [kcal/mol]        6.197 [kJ/mol]       0.00236046 [Eh]
    Rotational H            0.592 [kcal/mol]        2.479 [kJ/mol]       0.00094418 [Eh]
    Vibrational H           1.173 [kcal/mol]        4.908 [kJ/mol]       0.00186952 [Eh]
  Correction H              3.247 [kcal/mol]       13.585 [kJ/mol]       0.00517417 [Eh]
  Total H, Enthalpy at  298.15 [K]                                    -796.27320180 [Eh]

  Gibbs free energy, G = H - T * S
    Electronic G           -0.651 [kcal/mol]       -2.723 [kJ/mol]      -0.00103729 [Eh]
    Translational G        -9.963 [kcal/mol]      -41.686 [kJ/mol]      -0.01587754 [Eh]
    Rotational G           -3.464 [kcal/mol]      -14.492 [kJ/mol]      -0.00551974 [Eh]
    Vibrational G           1.107 [kcal/mol]        4.633 [kJ/mol]       0.00176471 [Eh]
  Correction G            -12.971 [kcal/mol]      -54.269 [kJ/mol]      -0.02066986 [Eh]
  Total G, Free enthalpy at  298.15 [K]                               -796.29904583 [Eh]

    Psi4 stopped on: Tuesday, 27 April 2021 05:28PM
    Psi4 wall time for execution: 0:01:15.93

*** Psi4 exiting successfully. Buy a developer a beer!
