                               Psi4 1.3.2 release

  ==> Input File <==

--------------------------------------------------------------------------
memory 144 GB

molecule {
0 3
S 0.0000000000 0.0000000000 0.0000000000
O 0.0000000000 0.0000000000 1.4862145500
}

set reference uks
set dynamic_level 1
set basis aug-cc-pV(T+d)Z

optimize("wB97X-V")
frequencies("wB97X-V")
--------------------------------------------------------------------------

    Molecular point group: c2v
  Charge       = 0
  Multiplicity = 3
  Basis Set: AUG-CC-PV(T+D)Z
    Blend: AUG-CC-PV(T+D)Z
  Basis Set: (AUG-CC-PV(T+D)Z AUX)
    Blend: AUG-CC-PVTZ-JKFIT
  @DF-UKS Final Energy:  -473.32483567119556
    Total Energy =                       -473.3248356711955012
    Molecular point group: c2v
  Basis Set: AUG-CC-PV(T+D)Z
    Blend: AUG-CC-PV(T+D)Z
  Basis Set: (AUG-CC-PV(T+D)Z AUX)
    Blend: AUG-CC-PVTZ-JKFIT
  @DF-UKS Final Energy:  -473.32482181336053
    Total Energy =                       -473.3248218133605860
  Basis Set: AUG-CC-PV(T+D)Z
    Blend: AUG-CC-PV(T+D)Z
  Basis Set: (AUG-CC-PV(T+D)Z AUX)
    Blend: AUG-CC-PVTZ-JKFIT
  @DF-UKS Final Energy:  -473.32484817934591
    Total Energy =                       -473.3248481793460201
  Basis Set: AUG-CC-PV(T+D)Z
    Blend: AUG-CC-PV(T+D)Z
  Basis Set: (AUG-CC-PV(T+D)Z AUX)
    Blend: AUG-CC-PVTZ-JKFIT
  @DF-UKS Final Energy:  -473.32489419484017
    Total Energy =                       -473.3248941948401693
  @DF-UKS Final Energy:  -473.32488977994876
    Total Energy =                       -473.3248897799486485
  @DF-UKS Final Energy:  -473.32489721699437
    Total Energy =                       -473.3248972169943727
  @DF-UKS Final Energy:  -473.32489913491179
    Total Energy =                       -473.3248991349117318
  @DF-UKS Final Energy:  -473.32489851508166
    Total Energy =                       -473.3248985150816566
  @DF-UKS Final Energy:  -473.32489834414525
    Total Energy =                       -473.3248983441452538
  **** Optimization is complete! (in 3 steps) ****
    Final optimized geometry and variables:
  @DF-UKS Final Energy:  -473.32489913491150
    Total Energy =                       -473.3248991349113339
  @DF-UKS Final Energy:  -473.32489851508205
    Total Energy =                       -473.3248985150819408
  Basis Set: AUG-CC-PV(T+D)Z
    Blend: AUG-CC-PV(T+D)Z
  Basis Set: (AUG-CC-PV(T+D)Z AUX)
    Blend: AUG-CC-PVTZ-JKFIT
  @DF-UKS Final Energy:  -473.32489834368187
    Total Energy =                       -473.3248983436818662
  Basis Set: AUG-CC-PV(T+D)Z
    Blend: AUG-CC-PV(T+D)Z
  Basis Set: (AUG-CC-PV(T+D)Z AUX)
    Blend: AUG-CC-PVTZ-JKFIT
  @DF-UKS Final Energy:  -473.32489913491173
    Total Energy =                       -473.3248991349116181
  Multiplicity = 3
  Basis Set: AUG-CC-PV(T+D)Z
    Blend: AUG-CC-PV(T+D)Z
  Basis Set: (AUG-CC-PV(T+D)Z AUX)
    Blend: AUG-CC-PVTZ-JKFIT
  @DF-UKS Final Energy:  -473.32489851508205
    Total Energy =                       -473.3248985150820545
    Molecular point group: c2v

    Geometry (in Angstrom), charge = 0, multiplicity = 3:

       Center              X                  Y                   Z               Mass
    ------------   -----------------  -----------------  -----------------  -----------------
         S            0.000000000000     0.000000000000    -0.492719822521    31.972071174400
         O            0.000000000000     0.000000000000     0.984892611769    15.994914619570

  Charge       = 0
  Multiplicity = 3
  Basis Set: AUG-CC-PV(T+D)Z
    Blend: AUG-CC-PV(T+D)Z
  Basis Set: (AUG-CC-PV(T+D)Z AUX)
    Blend: AUG-CC-PVTZ-JKFIT

    Orbital Energies [Eh]
    ---------------------

    Alpha Occupied:

       1A1   -88.985800     2A1   -19.293660     3A1    -8.135933
       1B2    -6.091369     1B1    -6.091369     4A1    -6.089964
       5A1    -1.227579     6A1    -0.813096     2B1    -0.577147
       2B2    -0.577147     7A1    -0.568666     3B2    -0.367066
       3B1    -0.367066

    Alpha Virtual:

       8A1     0.052655     9A1     0.075870     4B2     0.086391
       4B1     0.086391    10A1     0.131395    11A1     0.183232
       5B1     0.191441     5B2     0.191441    12A1     0.216574
       1A2     0.216574    13A1     0.309975     6B2     0.314294
       6B1     0.314294    14A1     0.396749     7B2     0.458159
       7B1     0.458159    15A1     0.502261    16A1     0.566840
       2A2     0.566841     8B2     0.601698     8B1     0.601698
      17A1     0.613825    18A1     0.648427     3A2     0.648428
       9B2     0.770227     9B1     0.770227    10B1     0.804201
      10B2     0.804201    19A1     0.813054    20A1     0.937448
       4A2     0.937450    11B2     0.937859    11B1     0.937859
      21A1     0.939066    22A1     1.021153    12B2     1.163404
      12B1     1.163404    23A1     1.337081     5A2     1.679239
      24A1     1.679241    25A1     1.715790    26A1     1.764445
      13B2     1.778197    13B1     1.778197     6A2     1.859558
      27A1     1.859559    14B1     1.934371    14B2     1.934371
      15B1     1.956267    15B2     1.956267    16B2     2.109317
      16B1     2.109317    28A1     2.177452     7A2     2.177465
      17B2     2.237096    17B1     2.237096    29A1     2.249497
      30A1     2.404382     8A2     2.404387    18B2     2.405521
      18B1     2.405521    31A1     2.437028    32A1     2.698000
      19B1     2.974467    19B2     2.974467    33A1     3.401967
      20B1     4.006530    20B2     4.006530    34A1     4.445424
      35A1     5.607363    21B2     6.109727    21B1     6.109727
       9A2     6.230259    36A1     6.230266    22B1     6.323071
      22B2     6.323071    37A1     6.339098    10A2     6.592748
      38A1     6.592787    23B1     6.781078    23B2     6.781078
      39A1     6.817796    11A2     6.817820    40A1     6.943463
      24B2     7.153613    24B1     7.153613    41A1     8.284587
      42A1    10.836573

    Beta Occupied:

       1A1   -88.979439     2A1   -19.275576     3A1    -8.129754
       4A1    -6.086180     1B1    -6.078167     1B2    -6.078167
       5A1    -1.187863     6A1    -0.739302     7A1    -0.534694
       2B2    -0.502015     2B1    -0.502015

    Beta Virtual:

       3B2    -0.040075     3B1    -0.040075     8A1     0.059092
       9A1     0.081883     4B1     0.095285     4B2     0.095285
      10A1     0.143392    11A1     0.187813     5B1     0.196852
       5B2     0.196852    12A1     0.233601     1A2     0.233601
      13A1     0.315882     6B2     0.331363     6B1     0.331363
      14A1     0.404288     7B1     0.471089     7B2     0.471089
      15A1     0.512529    16A1     0.597978     2A2     0.597979
      17A1     0.616603     8B1     0.627023     8B2     0.627023
      18A1     0.666139     3A2     0.666140     9B2     0.777841
       9B1     0.777841    10B2     0.823947    10B1     0.823947
      19A1     0.828667    20A1     0.943166     4A2     0.943168
      11B2     0.948489    11B1     0.948489    21A1     0.949523
      22A1     1.032156    12B2     1.173792    12B1     1.173792
      23A1     1.359819    24A1     1.712365     5A2     1.712365
      25A1     1.726839    26A1     1.774658    13B2     1.804320
      13B1     1.804320     6A2     1.880916    27A1     1.880916
      14B2     1.955564    14B1     1.955564    15B1     1.963408
      15B2     1.963408    16B2     2.157188    16B1     2.157188
      28A1     2.201167     7A2     2.201179    17B1     2.257916
      17B2     2.257916    29A1     2.261972    18B2     2.424836
      18B1     2.424836    30A1     2.428844     8A2     2.428847
      31A1     2.460407    32A1     2.716514    19B2     2.993317
      19B1     2.993317    33A1     3.413350    20B2     4.060095
      20B1     4.060095    34A1     4.466118    35A1     5.623072
      21B2     6.154769    21B1     6.154769     9A2     6.260813
      36A1     6.260823    22B2     6.345069    22B1     6.345069
      37A1     6.359892    10A2     6.663979    38A1     6.664014
      23B2     6.815860    23B1     6.815860    39A1     6.830330
      11A2     6.830353    40A1     6.969410    24B2     7.171241
      24B1     7.171241    41A1     8.296897    42A1    10.875038

    Final Occupation by Irrep:
             A1    A2    B1    B2
    DOCC [     7,    0,    2,    2 ]
    SOCC [     0,    0,    1,    1 ]

  @DF-UKS Final Energy:  -473.32489834368187

   => Energetics <=

    Nuclear Repulsion Energy =             45.8406287019946319
    One-Electron Energy =                -743.7348611231967652
    Two-Electron Energy =                 249.9456995475531471
    DFT Exchange-Correlation Energy =     -25.4771744203753698
    Empirical Dispersion Energy =           0.0000000000000000
    VV10 Nonlocal Energy =                  0.1008089503425503
    Total Energy =                       -473.3248983436818094

  UHF NO Occupations:
  HONO-2 :    2 B1 1.9977810
  HONO-1 :    3 B2 1.0000000
  HONO-0 :    3 B1 1.0000000
  LUNO+0 :    4 B1 0.0022190
  LUNO+1 :    4 B2 0.0022190
  LUNO+2 :    8 A1 0.0011010
  LUNO+3 :    9 A1 0.0002430

Computation Completed

Properties will be evaluated at   0.000000,   0.000000,   0.000000 [a0]

Properties computed using the SCF density matrix

  Nuclear Dipole Moment: [e a0]
     X:     0.0000      Y:     0.0000      Z:    -0.0083

  Electronic Dipole Moment: [e a0]
     X:     0.0000      Y:     0.0000      Z:    -0.6014

  Dipole Moment: [e a0]
     X:     0.0000      Y:     0.0000      Z:    -0.6097     Total:     0.6097

  Dipole Moment: [D]
     X:     0.0000      Y:     0.0000      Z:    -1.5497     Total:     1.5497

*** tstop() called on bp1-compute00048.data.bp.acrc.priv at Tue Apr 27 17:29:00 2021
Module time:
	user time   =     158.17 seconds =       2.64 minutes
	system time =       6.89 seconds =       0.11 minutes
	total time  =          7 seconds =       0.12 minutes
Total time:
	user time   =    1963.40 seconds =      32.72 minutes
	system time =      92.86 seconds =       1.55 minutes
	total time  =         87 seconds =       1.45 minutes

         ----------------------------------------------------------
                                   FINDIF
                     R. A. King and Jonathon Misiewicz
         ---------------------------------------------------------

  Computing second-derivative from energies using projected,
  symmetry-adapted, cartesian coordinates.

  3 energies passed in, including the reference geometry.
    Using 3-point formula.
    Energy without displacement: -473.3248991349
    Check energies below for precision!
    0: -1 :      -473.3248985151
    0: 1  :      -473.3248983437

-------------------------------------------------------------

  ==> Harmonic Vibrational Analysis <==

  non-mass-weighted Hessian:       Symmetric? True   Hermitian? True   Lin Dep Dim?  5 (0)
  projection of translations (True) and rotations (True) removed 5 degrees of freedom (5)
  total projector:                 Symmetric? True   Hermitian? True   Lin Dep Dim?  5 (5)
  mass-weighted Hessian:           Symmetric? True   Hermitian? True   Lin Dep Dim?  5 (0)
  pre-proj  low-frequency mode:    0.0000i [cm^-1]
  pre-proj  low-frequency mode:    0.0000  [cm^-1]
  pre-proj  low-frequency mode:    0.0000  [cm^-1]
  pre-proj  low-frequency mode:    0.0000  [cm^-1]
  pre-proj  low-frequency mode:    0.0000  [cm^-1]
  pre-proj  all modes:['0.0000i' '0.0000' '0.0000' '0.0000' '0.0000' '1221.2567']
  projected mass-weighted Hessian: Symmetric? True   Hermitian? True   Lin Dep Dim?  5 (5)
  post-proj low-frequency mode:    0.0000i [cm^-1] (TR)
  post-proj low-frequency mode:    0.0000  [cm^-1] (TR)
  post-proj low-frequency mode:    0.0000  [cm^-1] (TR)
  post-proj low-frequency mode:    0.0000  [cm^-1] (TR)
  post-proj low-frequency mode:    0.0000  [cm^-1] (TR)
  post-proj  all modes:['0.0000i' '0.0000' '0.0000' '0.0000' '0.0000' '1221.2567']

  Vibration                       6
  Freq [cm^-1]                1221.2567
  Irrep                           A1
  Reduced mass [u]             19.1932
  Force const [mDyne/A]        16.8660
  Turning point v=0 [a0]        0.0717
  RMS dev v=0 [a0 u^1/2]        0.2220
  Char temp [K]               1757.1164
  ----------------------------------------------------------------------------------
      1   S                0.00  0.00 -0.45
      2   O                0.00  0.00  0.89

  ==> Thermochemistry Components <==

  Entropy, S
    Electronic S            2.183 [cal/(mol K)]        9.134 [J/(mol K)]       0.00347910 [mEh/K] (multiplicity = 3)
    Translational S        37.528 [cal/(mol K)]      157.018 [J/(mol K)]       0.05980487 [mEh/K] (mol. weight = 47.9670 [u], P = 101325.00 [Pa])
    Rotational S           13.230 [cal/(mol K)]       55.354 [J/(mol K)]       0.02108327 [mEh/K] (symmetry no. = 1)
    Vibrational S           0.038 [cal/(mol K)]        0.158 [J/(mol K)]       0.00006035 [mEh/K]
  Total S                  52.979 [cal/(mol K)]      221.665 [J/(mol K)]       0.08442759 [mEh/K]
  Correction S              0.000 [cal/(mol K)]        0.000 [J/(mol K)]       0.00000000 [mEh/K]

  Constant volume heat capacity, Cv
    Electronic Cv           0.000 [cal/(mol K)]        0.000 [J/(mol K)]       0.00000000 [mEh/K]
    Translational Cv        2.981 [cal/(mol K)]       12.472 [J/(mol K)]       0.00475022 [mEh/K]
    Rotational Cv           1.987 [cal/(mol K)]        8.314 [J/(mol K)]       0.00316681 [mEh/K]
    Vibrational Cv          0.191 [cal/(mol K)]        0.801 [J/(mol K)]       0.00030499 [mEh/K]
  Total Cv                  5.159 [cal/(mol K)]       21.587 [J/(mol K)]       0.00822201 [mEh/K]
  Correction Cv             0.000 [cal/(mol K)]        0.000 [J/(mol K)]       0.00000000 [mEh/K]

  Constant pressure heat capacity, Cp
    Electronic Cp           0.000 [cal/(mol K)]        0.000 [J/(mol K)]       0.00000000 [mEh/K]
    Translational Cp        4.968 [cal/(mol K)]       20.786 [J/(mol K)]       0.00791703 [mEh/K]
    Rotational Cp           1.987 [cal/(mol K)]        8.314 [J/(mol K)]       0.00316681 [mEh/K]
    Vibrational Cp          0.191 [cal/(mol K)]        0.801 [J/(mol K)]       0.00030499 [mEh/K]
  Total Cp                  7.147 [cal/(mol K)]       29.901 [J/(mol K)]       0.01138882 [mEh/K]
  Correction Cp             0.000 [cal/(mol K)]        0.000 [J/(mol K)]       0.00000000 [mEh/K]

  ==> Thermochemistry Energy Analysis <==

  Raw electronic energy, E0
  Total E0, Electronic energy at well bottom at 0 [K]                 -473.32489913 [Eh]

  Zero-point energy, ZPE_vib = Sum_i nu_i / 2
    Electronic ZPE          0.000 [kcal/mol]        0.000 [kJ/mol]       0.00000000 [Eh]
    Translational ZPE       0.000 [kcal/mol]        0.000 [kJ/mol]       0.00000000 [Eh]
    Rotational ZPE          0.000 [kcal/mol]        0.000 [kJ/mol]       0.00000000 [Eh]
    Vibrational ZPE         1.746 [kcal/mol]        7.305 [kJ/mol]       0.00278223 [Eh]         610.628 [cm^-1]
  Correction ZPE            1.746 [kcal/mol]        7.305 [kJ/mol]       0.00278223 [Eh]         610.628 [cm^-1]
  Total ZPE, Electronic energy at 0 [K]                               -473.32211691 [Eh]

  Thermal Energy, E (includes ZPE)
    Electronic E            0.000 [kcal/mol]        0.000 [kJ/mol]       0.00000000 [Eh]
    Translational E         0.889 [kcal/mol]        3.718 [kJ/mol]       0.00141628 [Eh]
    Rotational E            0.592 [kcal/mol]        2.479 [kJ/mol]       0.00094418 [Eh]
    Vibrational E           1.756 [kcal/mol]        7.345 [kJ/mol]       0.00279761 [Eh]
  Correction E              3.237 [kcal/mol]       13.543 [kJ/mol]       0.00515808 [Eh]
  Total E, Electronic energy at  298.15 [K]                           -473.31974106 [Eh]

  Enthalpy, H_trans = E_trans + k_B * T
    Electronic H            0.000 [kcal/mol]        0.000 [kJ/mol]       0.00000000 [Eh]
    Translational H         1.481 [kcal/mol]        6.197 [kJ/mol]       0.00236046 [Eh]
    Rotational H            0.592 [kcal/mol]        2.479 [kJ/mol]       0.00094418 [Eh]
    Vibrational H           1.756 [kcal/mol]        7.345 [kJ/mol]       0.00279761 [Eh]
  Correction H              3.829 [kcal/mol]       16.021 [kJ/mol]       0.00610226 [Eh]
  Total H, Enthalpy at  298.15 [K]                                    -473.31879687 [Eh]

  Gibbs free energy, G = H - T * S
    Electronic G           -0.651 [kcal/mol]       -2.723 [kJ/mol]      -0.00103729 [Eh]
    Translational G        -9.708 [kcal/mol]      -40.617 [kJ/mol]      -0.01547036 [Eh]
    Rotational G           -3.352 [kcal/mol]      -14.025 [kJ/mol]      -0.00534179 [Eh]
    Vibrational G           1.744 [kcal/mol]        7.298 [kJ/mol]       0.00277962 [Eh]
  Correction G            -11.966 [kcal/mol]      -50.068 [kJ/mol]      -0.01906982 [Eh]
  Total G, Free enthalpy at  298.15 [K]                               -473.34396896 [Eh]

    Psi4 stopped on: Tuesday, 27 April 2021 05:29PM
    Psi4 wall time for execution: 0:01:26.71

*** Psi4 exiting successfully. Buy a developer a beer!
