                         Program Version 4.2.0 -  RELEASE  -
|  1> #
|  2> # 01_BH3 tpss/aug-cc-pvt(+d)z
|  3> #
|  4> ! tpss d3bj aug-cc-pvt(+d)z def2/j opt xyzfile numfreq
|  5>
|  6> *xyz 0 1
|  7>   B   0.00058990711441     -0.00015241661398     -0.19828246925039
|  8>   H   -0.40433656286270     -1.04111721537816      0.22036101748058
|  9>   H   -0.17315147828119      1.00175941266214      0.42559464068470
| 10>   H   0.57689815002948      0.03951021333001     -1.24154545391489
| 11> *
| 12>
| 13> %pal
| 14> nprocs 24
| 15> end
| 16>
| 17>
| 18>                          ****END OF INPUT****
 Total Charge           Charge          ....    0
 Multiplicity           Mult            ....    1
 Number of Electrons    NEL             ....    8
Dispersion correction           -0.001008571
FINAL SINGLE POINT ENERGY       -26.627616052309
Dispersion correction            ... done
                    ***********************HURRAY********************

CARTESIAN COORDINATES (ANGSTROEM)
---------------------------------
  B     -0.001890    0.000260   -0.199634
  H     -0.403484   -1.041135    0.220800
  H     -0.172312    1.001487    0.425980
  H      0.577686    0.039388   -1.241018

 Multiplicity           Mult            ....    1
 Number of Electrons    NEL             ....    8
 Basis Dimension        Dim             ....  115

ORBITAL ENERGIES
----------------

  NO   OCC          E(Eh)            E(eV)
   0   2.0000      -6.612422      -179.9331
   1   2.0000      -0.476603       -12.9690
   2   2.0000      -0.320638        -8.7250
   3   2.0000      -0.320273        -8.7151
   4   0.0000      -0.100342        -2.7304
   5   0.0000       0.001052         0.0286
   6   0.0000       0.023823         0.6483
   7   0.0000       0.023934         0.6513
   8   0.0000       0.038420         1.0455

MULLIKEN ATOMIC CHARGES
-----------------------
   0 B :   -0.080717
   1 H :    0.037106
   2 H :    0.033968
   3 H :    0.009644
Sum of atomic charges:    0.0000000

LOEWDIN ATOMIC CHARGES
----------------------
   0 B :    0.600410
   1 H :   -0.199655
   2 H :   -0.199887
   3 H :   -0.200867

  Mayer bond orders larger than 0.100000
B(  0-B ,  1-H ) :   0.9473 B(  0-B ,  2-H ) :   0.9567 B(  0-B ,  3-H ) :   0.9609

Dispersion correction           -0.001008569
FINAL SINGLE POINT ENERGY       -26.627614368847

DIPOLE MOMENT
-------------
                                X             Y             Z
Electronic contribution:     -0.00821       0.00152      -0.00670
Nuclear contribution   :      0.00596      -0.00082       0.00368
                        -----------------------------------------
Total Dipole Moment    :     -0.00225       0.00070      -0.00302
                        -----------------------------------------
Magnitude (a.u.)       :      0.00384
Magnitude (Debye)      :      0.00975

VIBRATIONAL FREQUENCIES
-----------------------

Scaling factor for frequencies =  1.000000000 (already applied!)

   0:         0.00 cm**-1
   1:         0.00 cm**-1
   2:         0.00 cm**-1
   3:         0.00 cm**-1
   4:         0.00 cm**-1
   5:         0.00 cm**-1
   6:      1158.17 cm**-1
   7:      1211.77 cm**-1
   8:      1212.88 cm**-1
   9:      2542.61 cm**-1
  10:      2672.45 cm**-1
  11:      2673.21 cm**-1

IR SPECTRUM
-----------

 Mode    freq (cm**-1)   T**2         TX         TY         TZ
-------------------------------------------------------------------
   6:      1158.17   82.055867  ( -7.896935   1.234201  -4.262750)
   7:      1211.77   14.660003  (  1.562709   2.851515  -2.021585)
   8:      1212.88   15.226814  (  1.115970  -2.428742  -2.842998)
   9:      2542.61    0.037600  ( -0.066776   0.043468   0.176780)
  10:      2672.45  136.705838  (  1.644620  -9.867399  -6.052727)
  11:      2673.21  133.713301  (  5.506682   5.934340  -8.256717)

--------------------------
THERMOCHEMISTRY AT 298.15K
--------------------------

Temperature         ... 298.15 K
Pressure            ... 1.00 atm
Total Mass          ... 13.83 AMU

Throughout the following assumptions are being made:
  (1) The electronic state is orbitally nondegenerate
  (2) There are no thermally accessible electronically excited states
  (3) Hindered rotations indicated by low frequency modes are not
      treated as such but are treated as vibrations and this may
      cause some error
  (4) All equations used are the standard statistical mechanics
      equations for an ideal gas
  (5) All vibrations are strictly harmonic

freq.    1158.17  E(vib)   ...       0.01
freq.    1211.77  E(vib)   ...       0.01
freq.    1212.88  E(vib)   ...       0.01
freq.    2542.61  E(vib)   ...       0.00
freq.    2672.45  E(vib)   ...       0.00
freq.    2673.21  E(vib)   ...       0.00

------------
INNER ENERGY
------------

The inner energy is: U= E(el) + E(ZPE) + E(vib) + E(rot) + E(trans)
    E(el)   - is the total energy from the electronic structure calculation
              = E(kin-el) + E(nuc-el) + E(el-el) + E(nuc-nuc)
    E(ZPE)  - the the zero temperature vibrational energy from the frequency calculation
    E(vib)  - the the finite temperature correction to E(ZPE) due to population
              of excited vibrational states
    E(rot)  - is the rotational thermal energy
    E(trans)- is the translational thermal energy

Summary of contributions to the inner energy U:
Electronic energy                ...    -26.62761437 Eh
Zero point energy                ...      0.02613306 Eh      16.40 kcal/mol
Thermal vibrational correction   ...      0.00005183 Eh       0.03 kcal/mol
Thermal rotational correction    ...      0.00141627 Eh       0.89 kcal/mol
Thermal translational correction ...      0.00141627 Eh       0.89 kcal/mol
-----------------------------------------------------------------------
Total thermal energy                    -26.59859694 Eh

Summary of corrections to the electronic energy:
(perhaps to be used in another calculation)
Total thermal correction                  0.00288437 Eh       1.81 kcal/mol
Non-thermal (ZPE) correction              0.02613306 Eh      16.40 kcal/mol
-----------------------------------------------------------------------
Total correction                          0.02901743 Eh      18.21 kcal/mol

--------
ENTHALPY
--------

The enthalpy is H = U + kB*T
                kB is Boltzmann's constant
Total free energy                 ...    -26.59859694 Eh
Thermal Enthalpy correction       ...      0.00094421 Eh       0.59 kcal/mol
-----------------------------------------------------------------------
Total Enthalpy                    ...    -26.59765273 Eh

Note: Only C1 symmetry has been detected, increase convergence thresholds
      if your molecule has a higher symmetry. Symmetry factor of 1.0 is
      used for the rotational entropy correction.

Note: Rotational entropy computed according to Herzberg
Infrared and Raman Spectra, Chapter V,1, Van Nostrand Reinhold, 1945
Point Group:  C1, Symmetry Number:   1
Rotational constants in cm-1:     7.838958     7.837056     3.919042

Vibrational entropy computed according to the QRRHO of S. Grimme
Chem.Eur.J. 2012 18 9955

-------
ENTROPY
-------

The entropy contributions are T*S = T*(S(el)+S(vib)+S(rot)+S(trans))
     S(el)   - electronic entropy
     S(vib)  - vibrational entropy
     S(rot)  - rotational entropy
     S(trans)- translational entropy
The entropies will be listed as mutliplied by the temperature to get
units of energy

Electronic entropy                ...      0.00000000 Eh      0.00 kcal/mol
Vibrational entropy               ...      0.00006084 Eh      0.04 kcal/mol
Rotational entropy                ...      0.00692195 Eh      4.34 kcal/mol
Translational entropy             ...      0.01606980 Eh     10.08 kcal/mol
-----------------------------------------------------------------------
Final entropy term                ...      0.02305259 Eh     14.47 kcal/mol

In case the symmetry of your molecule has not been determined correctly
or in case you have a reason to use a different symmetry number we print
out the resulting rotational entropy values for sn=1,12 :
 --------------------------------------------------------
|  sn= 1 | S(rot)=       0.00692195 Eh      4.34 kcal/mol|
|  sn= 2 | S(rot)=       0.00626750 Eh      3.93 kcal/mol|
|  sn= 3 | S(rot)=       0.00588466 Eh      3.69 kcal/mol|
|  sn= 4 | S(rot)=       0.00561304 Eh      3.52 kcal/mol|
|  sn= 5 | S(rot)=       0.00540235 Eh      3.39 kcal/mol|
|  sn= 6 | S(rot)=       0.00523021 Eh      3.28 kcal/mol|
|  sn= 7 | S(rot)=       0.00508466 Eh      3.19 kcal/mol|
|  sn= 8 | S(rot)=       0.00495858 Eh      3.11 kcal/mol|
|  sn= 9 | S(rot)=       0.00484738 Eh      3.04 kcal/mol|
|  sn=10 | S(rot)=       0.00474790 Eh      2.98 kcal/mol|
|  sn=11 | S(rot)=       0.00465791 Eh      2.92 kcal/mol|
|  sn=12 | S(rot)=       0.00457575 Eh      2.87 kcal/mol|
 --------------------------------------------------------

-------------------
GIBBS FREE ENERGY
-------------------

The Gibbs free energy is G = H - T*S

Total enthalpy                    ...    -26.59765273 Eh
Total entropy correction          ...     -0.02305259 Eh    -14.47 kcal/mol
-----------------------------------------------------------------------
Final Gibbs free energy         ...    -26.62070532 Eh

For completeness - the Gibbs free energy minus the electronic energy
G-E(el)                           ...      0.00690905 Eh      4.34 kcal/mol

                             ****ORCA TERMINATED NORMALLY****
TOTAL RUN TIME: 0 days 0 hours 0 minutes 16 seconds 926 msec
