                         Program Version 4.2.0 -  RELEASE  -
|  1> #
|  2> # 02_C2H2 tpss/aug-cc-pvt(+d)z
|  3> #
|  4> ! tpss d3bj aug-cc-pvt(+d)z def2/j opt xyzfile numfreq usesym
|  5>
|  6> *xyz 0 1
|  7> C            0.000000000          0.000000000         -0.598584835
|  8> C            0.000000000          0.000000000          0.598584827
|  9> H            0.000000000          0.000000000         -1.664429739
| 10> H            0.000000000          0.000000000          1.664429747
| 11> *
| 12>
| 13> %pal
| 14> nprocs 24
| 15> end
| 16>
| 17>
| 18>                          ****END OF INPUT****
 Total Charge           Charge          ....    0
 Multiplicity           Mult            ....    1
 Number of Electrons    NEL             ....   14
Dispersion correction           -0.001609780
FINAL SINGLE POINT ENERGY       -77.374847467387
Dispersion correction            ... done
Dispersion correction           -0.001609289
FINAL SINGLE POINT ENERGY       -77.374909761510
Dispersion correction            ... done
Dispersion correction           -0.001609179
FINAL SINGLE POINT ENERGY       -77.374912746459
Dispersion correction            ... done
                    ***********************HURRAY********************

CARTESIAN COORDINATES (ANGSTROEM)
---------------------------------
  C     -0.000000   -0.000000   -0.601101
  C     -0.000000   -0.000000    0.601101
  H      0.000000    0.000000   -1.666539
  H      0.000000    0.000000    1.666539

 Multiplicity           Mult            ....    1
 Number of Electrons    NEL             ....   14
 Basis Dimension        Dim             ....  138

ORBITAL ENERGIES
----------------

  NO   OCC          E(Eh)            E(eV)
   0   2.0000      -9.998899      -272.0839
   1   2.0000      -9.996801      -272.0268
   2   2.0000      -0.700426       -19.0596
   3   2.0000      -0.529558       -14.4100
   4   2.0000      -0.456856       -12.4317
   5   2.0000      -0.264820        -7.2061
   6   2.0000      -0.264820        -7.2061
   7   0.0000      -0.008156        -0.2219
   8   0.0000      -0.008156        -0.2219
   9   0.0000      -0.002529        -0.0688
  10   0.0000       0.006999         0.1905
  11   0.0000       0.043191         1.1753

MULLIKEN ATOMIC CHARGES
-----------------------
   0 C :   -0.501559
   1 C :   -0.501561
   2 H :    0.501560
   3 H :    0.501560
Sum of atomic charges:    0.0000000

LOEWDIN ATOMIC CHARGES
----------------------
   0 C :    0.307752
   1 C :    0.307752
   2 H :   -0.307752
   3 H :   -0.307752

  Mayer bond orders larger than 0.100000
B(  0-C ,  1-C ) :   1.8633 B(  0-C ,  2-H ) :   0.6908 B(  1-C ,  3-H ) :   0.6908

Dispersion correction           -0.001609178
FINAL SINGLE POINT ENERGY       -77.374912784686

DIPOLE MOMENT
-------------
                                X             Y             Z
Electronic contribution:     -0.00000      -0.00000      -0.00000
Nuclear contribution   :      0.00000       0.00000       0.00000
                        -----------------------------------------
Total Dipole Moment    :      0.00000       0.00000      -0.00000
                        -----------------------------------------
Magnitude (a.u.)       :      0.00000
Magnitude (Debye)      :      0.00000

VIBRATIONAL FREQUENCIES
-----------------------

Scaling factor for frequencies =  1.000000000 (already applied!)

   0:         0.00 cm**-1
   1:         0.00 cm**-1
   2:         0.00 cm**-1
   3:         0.00 cm**-1
   4:         0.00 cm**-1
   5:       617.00 cm**-1
   6:       617.12 cm**-1
   7:       766.51 cm**-1
   8:       766.51 cm**-1
   9:      2032.02 cm**-1
  10:      3382.71 cm**-1
  11:      3483.84 cm**-1

IR SPECTRUM
-----------

 Mode    freq (cm**-1)   T**2         TX         TY         TZ
-------------------------------------------------------------------
   5:       617.00    0.002710  ( -0.036365   0.037254  -0.000008)
   6:       617.12    0.002663  (  0.036841   0.036140   0.000002)
   7:       766.51  112.765616  (  6.876831   8.091650  -0.000022)
   8:       766.51  112.764791  (  8.091625  -6.876801  -0.000007)
   9:      2032.02    0.000000  ( -0.000008   0.000002   0.000001)
  10:      3382.71   90.916236  (  0.000004   0.000006   9.535001)
  11:      3483.84    0.000000  (  0.000000  -0.000005   0.000089)

--------------------------
THERMOCHEMISTRY AT 298.15K
--------------------------

Temperature         ... 298.15 K
Pressure            ... 1.00 atm
Total Mass          ... 26.04 AMU
The molecule is recognized as being linear

Throughout the following assumptions are being made:
  (1) The electronic state is orbitally nondegenerate
  (2) There are no thermally accessible electronically excited states
  (3) Hindered rotations indicated by low frequency modes are not
      treated as such but are treated as vibrations and this may
      cause some error
  (4) All equations used are the standard statistical mechanics
      equations for an ideal gas
  (5) All vibrations are strictly harmonic

freq.     617.00  E(vib)   ...       0.09
freq.     617.12  E(vib)   ...       0.09
freq.     766.51  E(vib)   ...       0.06
freq.     766.51  E(vib)   ...       0.06
freq.    2032.02  E(vib)   ...       0.00
freq.    3382.71  E(vib)   ...       0.00
freq.    3483.84  E(vib)   ...       0.00

------------
INNER ENERGY
------------

The inner energy is: U= E(el) + E(ZPE) + E(vib) + E(rot) + E(trans)
    E(el)   - is the total energy from the electronic structure calculation
              = E(kin-el) + E(nuc-el) + E(el-el) + E(nuc-nuc)
    E(ZPE)  - the the zero temperature vibrational energy from the frequency calculation
    E(vib)  - the the finite temperature correction to E(ZPE) due to population
              of excited vibrational states
    E(rot)  - is the rotational thermal energy
    E(trans)- is the translational thermal energy

Summary of contributions to the inner energy U:
Electronic energy                ...    -77.37491279 Eh
Zero point energy                ...      0.02657646 Eh      16.68 kcal/mol
Thermal vibrational correction   ...      0.00047943 Eh       0.30 kcal/mol
Thermal rotational correction    ...      0.00094418 Eh       0.59 kcal/mol
Thermal translational correction ...      0.00141627 Eh       0.89 kcal/mol
-----------------------------------------------------------------------
Total thermal energy                    -77.34549645 Eh

Summary of corrections to the electronic energy:
(perhaps to be used in another calculation)
Total thermal correction                  0.00283988 Eh       1.78 kcal/mol
Non-thermal (ZPE) correction              0.02657646 Eh      16.68 kcal/mol
-----------------------------------------------------------------------
Total correction                          0.02941634 Eh      18.46 kcal/mol

--------
ENTHALPY
--------

The enthalpy is H = U + kB*T
                kB is Boltzmann's constant
Total free energy                 ...    -77.34549645 Eh
Thermal Enthalpy correction       ...      0.00094421 Eh       0.59 kcal/mol
-----------------------------------------------------------------------
Total Enthalpy                    ...    -77.34455224 Eh

Note: Rotational entropy computed according to Herzberg
Infrared and Raman Spectra, Chapter V,1, Van Nostrand Reinhold, 1945
Point Group:  Dinfh, Symmetry Number:   2
Rotational constants in cm-1:     0.000000     1.180605     1.180605

Vibrational entropy computed according to the QRRHO of S. Grimme
Chem.Eur.J. 2012 18 9955

-------
ENTROPY
-------

The entropy contributions are T*S = T*(S(el)+S(vib)+S(rot)+S(trans))
     S(el)   - electronic entropy
     S(vib)  - vibrational entropy
     S(rot)  - rotational entropy
     S(trans)- translational entropy
The entropies will be listed as mutliplied by the temperature to get
units of energy

Electronic entropy                ...      0.00000000 Eh      0.00 kcal/mol
Vibrational entropy               ...      0.00062604 Eh      0.39 kcal/mol
Rotational entropy                ...      0.00516905 Eh      3.24 kcal/mol
Translational entropy             ...      0.01696549 Eh     10.65 kcal/mol
-----------------------------------------------------------------------
Final entropy term                ...      0.02276058 Eh     14.28 kcal/mol

In case the symmetry of your molecule has not been determined correctly
or in case you have a reason to use a different symmetry number we print
out the resulting rotational entropy values for sn=1,12 :
 --------------------------------------------------------
|  sn= 1 | S(rot)=      -0.00851309 Eh     -5.34 kcal/mol|
|  sn= 2 | S(rot)=      -0.00916754 Eh     -5.75 kcal/mol|
|  sn= 3 | S(rot)=      -0.00955038 Eh     -5.99 kcal/mol|
|  sn= 4 | S(rot)=      -0.00982200 Eh     -6.16 kcal/mol|
|  sn= 5 | S(rot)=      -0.01003269 Eh     -6.30 kcal/mol|
|  sn= 6 | S(rot)=      -0.01020483 Eh     -6.40 kcal/mol|
|  sn= 7 | S(rot)=      -0.01035038 Eh     -6.49 kcal/mol|
|  sn= 8 | S(rot)=      -0.01047646 Eh     -6.57 kcal/mol|
|  sn= 9 | S(rot)=      -0.01058767 Eh     -6.64 kcal/mol|
|  sn=10 | S(rot)=      -0.01068715 Eh     -6.71 kcal/mol|
|  sn=11 | S(rot)=      -0.01077714 Eh     -6.76 kcal/mol|
|  sn=12 | S(rot)=      -0.01085929 Eh     -6.81 kcal/mol|
 --------------------------------------------------------

-------------------
GIBBS FREE ENERGY
-------------------

The Gibbs free energy is G = H - T*S

Total enthalpy                    ...    -77.34455224 Eh
Total entropy correction          ...     -0.02276058 Eh    -14.28 kcal/mol
-----------------------------------------------------------------------
Final Gibbs free energy         ...    -77.36731282 Eh

For completeness - the Gibbs free energy minus the electronic energy
G-E(el)                           ...      0.00759997 Eh      4.77 kcal/mol

                             ****ORCA TERMINATED NORMALLY****
TOTAL RUN TIME: 0 days 0 hours 0 minutes 39 seconds 460 msec
