                         Program Version 4.2.0 -  RELEASE  -
|  1> #
|  2> # 03_C2H4 tpss/aug-cc-pvt(+d)z
|  3> #
|  4> ! tpss d3bj aug-cc-pvt(+d)z def2/j opt xyzfile numfreq
|  5>
|  6> *xyz 0 1
|  7> C           -0.660880719         -0.052042050         -0.000518813
|  8> C            0.660811459          0.052037749          0.000552241
|  9> H           -1.234160473          0.004039688         -0.920739055
| 10> H           -1.219846088         -0.197224842          0.918756738
| 11> H            1.219778335          0.197219347         -0.918722591
| 12> H            1.234090068         -0.004046487          0.920773141
| 13> *
| 14>
| 15> %pal
| 16> nprocs 24
| 17> end
| 18>
| 19>
| 20>                          ****END OF INPUT****
 Total Charge           Charge          ....    0
 Multiplicity           Mult            ....    1
 Number of Electrons    NEL             ....   16
Dispersion correction           -0.002847855
FINAL SINGLE POINT ENERGY       -78.635693886934
Dispersion correction            ... done
Dispersion correction           -0.002846203
FINAL SINGLE POINT ENERGY       -78.635731674617
Dispersion correction            ... done
Dispersion correction           -0.002845685
FINAL SINGLE POINT ENERGY       -78.635735721582
Dispersion correction            ... done
                    ***********************HURRAY********************

CARTESIAN COORDINATES (ANGSTROEM)
---------------------------------
  C     -0.663269   -0.052110   -0.000512
  C      0.663200    0.052104    0.000546
  H     -1.240029    0.003435   -0.919742
  H     -1.225685   -0.197603    0.917710
  H      1.225616    0.197597   -0.917676
  H      1.239959   -0.003441    0.919776

 Multiplicity           Mult            ....    1
 Number of Electrons    NEL             ....   16
 Basis Dimension        Dim             ....  184

ORBITAL ENERGIES
----------------

  NO   OCC          E(Eh)            E(eV)
   0   2.0000      -9.990951      -271.8676
   1   2.0000      -9.990251      -271.8485
   2   2.0000      -0.707586       -19.2544
   3   2.0000      -0.537457       -14.6250
   4   2.0000      -0.429698       -11.6927
   5   2.0000      -0.380534       -10.3549
   6   2.0000      -0.321833        -8.7575
   7   2.0000      -0.248083        -6.7507
   8   0.0000      -0.031388        -0.8541
   9   0.0000      -0.005920        -0.1611
  10   0.0000       0.011883         0.3234
  11   0.0000       0.014363         0.3908
  12   0.0000       0.044128         1.2008

MULLIKEN ATOMIC CHARGES
-----------------------
   0 C :   -0.443170
   1 C :   -0.443168
   2 H :    0.237535
   3 H :    0.205634
   4 H :    0.205637
   5 H :    0.237533
Sum of atomic charges:   -0.0000000

LOEWDIN ATOMIC CHARGES
----------------------
   0 C :    0.467832
   1 C :    0.467832
   2 H :   -0.233858
   3 H :   -0.233974
   4 H :   -0.233974
   5 H :   -0.233858

  Mayer bond orders larger than 0.100000
B(  0-C ,  1-C ) :   1.6919 B(  0-C ,  2-H ) :   0.8847 B(  0-C ,  3-H ) :   0.9085
B(  1-C ,  4-H ) :   0.9085 B(  1-C ,  5-H ) :   0.8848

Dispersion correction           -0.002845535
FINAL SINGLE POINT ENERGY       -78.635736210563

DIPOLE MOMENT
-------------
                                X             Y             Z
Electronic contribution:     -0.00000      -0.00000      -0.00000
Nuclear contribution   :      0.00000       0.00000       0.00000
                        -----------------------------------------
Total Dipole Moment    :     -0.00000      -0.00000      -0.00000
                        -----------------------------------------
Magnitude (a.u.)       :      0.00000
Magnitude (Debye)      :      0.00000

VIBRATIONAL FREQUENCIES
-----------------------

Scaling factor for frequencies =  1.000000000 (already applied!)

   0:         0.00 cm**-1
   1:         0.00 cm**-1
   2:         0.00 cm**-1
   3:         0.00 cm**-1
   4:         0.00 cm**-1
   5:         0.00 cm**-1
   6:       815.67 cm**-1
   7:       954.18 cm**-1
   8:       965.95 cm**-1
   9:      1056.65 cm**-1
  10:      1234.87 cm**-1
  11:      1369.77 cm**-1
  12:      1470.50 cm**-1
  13:      1663.53 cm**-1
  14:      3089.08 cm**-1
  15:      3104.03 cm**-1
  16:      3155.35 cm**-1
  17:      3184.43 cm**-1

IR SPECTRUM
-----------

 Mode    freq (cm**-1)   T**2         TX         TY         TZ
-------------------------------------------------------------------
   6:       815.67    0.028197  ( -0.151493  -0.010010   0.071743)
   7:       954.18    0.000000  ( -0.000011  -0.000396  -0.000013)
   8:       965.95   97.496561  ( -0.771312   9.796389   0.965612)
   9:      1056.65    0.052180  ( -0.033181   0.205009   0.095132)
  10:      1234.87    0.000001  ( -0.000874  -0.000081  -0.000013)
  11:      1369.77    0.000000  ( -0.000016   0.000002  -0.000004)
  12:      1470.50    6.050303  ( -2.450861  -0.207790  -0.020114)
  13:      1663.53    0.000000  (  0.000009  -0.000017  -0.000011)
  14:      3089.08   22.498949  ( -4.728283  -0.373125   0.055404)
  15:      3104.03    0.000000  (  0.000019  -0.000009  -0.000021)
  16:      3155.35    0.000000  (  0.000543   0.000054   0.000029)
  17:      3184.43   19.942919  (  0.267727  -0.470381   4.432830)

--------------------------
THERMOCHEMISTRY AT 298.15K
--------------------------

Temperature         ... 298.15 K
Pressure            ... 1.00 atm
Total Mass          ... 28.05 AMU

Throughout the following assumptions are being made:
  (1) The electronic state is orbitally nondegenerate
  (2) There are no thermally accessible electronically excited states
  (3) Hindered rotations indicated by low frequency modes are not
      treated as such but are treated as vibrations and this may
      cause some error
  (4) All equations used are the standard statistical mechanics
      equations for an ideal gas
  (5) All vibrations are strictly harmonic

freq.     815.67  E(vib)   ...       0.05
freq.     954.18  E(vib)   ...       0.03
freq.     965.95  E(vib)   ...       0.03
freq.    1056.65  E(vib)   ...       0.02
freq.    1234.87  E(vib)   ...       0.01
freq.    1369.77  E(vib)   ...       0.01
freq.    1470.50  E(vib)   ...       0.00
freq.    1663.53  E(vib)   ...       0.00
freq.    3089.08  E(vib)   ...       0.00
freq.    3104.03  E(vib)   ...       0.00
freq.    3155.35  E(vib)   ...       0.00
freq.    3184.43  E(vib)   ...       0.00

------------
INNER ENERGY
------------

The inner energy is: U= E(el) + E(ZPE) + E(vib) + E(rot) + E(trans)
    E(el)   - is the total energy from the electronic structure calculation
              = E(kin-el) + E(nuc-el) + E(el-el) + E(nuc-nuc)
    E(ZPE)  - the the zero temperature vibrational energy from the frequency calculation
    E(vib)  - the the finite temperature correction to E(ZPE) due to population
              of excited vibrational states
    E(rot)  - is the rotational thermal energy
    E(trans)- is the translational thermal energy

Summary of contributions to the inner energy U:
Electronic energy                ...    -78.63573621 Eh
Zero point energy                ...      0.05026552 Eh      31.54 kcal/mol
Thermal vibrational correction   ...      0.00022056 Eh       0.14 kcal/mol
Thermal rotational correction    ...      0.00141627 Eh       0.89 kcal/mol
Thermal translational correction ...      0.00141627 Eh       0.89 kcal/mol
-----------------------------------------------------------------------
Total thermal energy                    -78.58241759 Eh

Summary of corrections to the electronic energy:
(perhaps to be used in another calculation)
Total thermal correction                  0.00305310 Eh       1.92 kcal/mol
Non-thermal (ZPE) correction              0.05026552 Eh      31.54 kcal/mol
-----------------------------------------------------------------------
Total correction                          0.05331862 Eh      33.46 kcal/mol

--------
ENTHALPY
--------

The enthalpy is H = U + kB*T
                kB is Boltzmann's constant
Total free energy                 ...    -78.58241759 Eh
Thermal Enthalpy correction       ...      0.00094421 Eh       0.59 kcal/mol
-----------------------------------------------------------------------
Total Enthalpy                    ...    -78.58147338 Eh

Note: Rotational entropy computed according to Herzberg
Infrared and Raman Spectra, Chapter V,1, Van Nostrand Reinhold, 1945
Point Group:  Ci, Symmetry Number:   1
Rotational constants in cm-1:     4.894524     1.003547     0.832795

Vibrational entropy computed according to the QRRHO of S. Grimme
Chem.Eur.J. 2012 18 9955

-------
ENTROPY
-------

The entropy contributions are T*S = T*(S(el)+S(vib)+S(rot)+S(trans))
     S(el)   - electronic entropy
     S(vib)  - vibrational entropy
     S(rot)  - rotational entropy
     S(trans)- translational entropy
The entropies will be listed as mutliplied by the temperature to get
units of energy

Electronic entropy                ...      0.00000000 Eh      0.00 kcal/mol
Vibrational entropy               ...      0.00026837 Eh      0.17 kcal/mol
Rotational entropy                ...      0.00884578 Eh      5.55 kcal/mol
Translational entropy             ...      0.01707111 Eh     10.71 kcal/mol
-----------------------------------------------------------------------
Final entropy term                ...      0.02618525 Eh     16.43 kcal/mol

In case the symmetry of your molecule has not been determined correctly
or in case you have a reason to use a different symmetry number we print
out the resulting rotational entropy values for sn=1,12 :
 --------------------------------------------------------
|  sn= 1 | S(rot)=       0.00884578 Eh      5.55 kcal/mol|
|  sn= 2 | S(rot)=       0.00819133 Eh      5.14 kcal/mol|
|  sn= 3 | S(rot)=       0.00780849 Eh      4.90 kcal/mol|
|  sn= 4 | S(rot)=       0.00753687 Eh      4.73 kcal/mol|
|  sn= 5 | S(rot)=       0.00732618 Eh      4.60 kcal/mol|
|  sn= 6 | S(rot)=       0.00715404 Eh      4.49 kcal/mol|
|  sn= 7 | S(rot)=       0.00700849 Eh      4.40 kcal/mol|
|  sn= 8 | S(rot)=       0.00688241 Eh      4.32 kcal/mol|
|  sn= 9 | S(rot)=       0.00677120 Eh      4.25 kcal/mol|
|  sn=10 | S(rot)=       0.00667172 Eh      4.19 kcal/mol|
|  sn=11 | S(rot)=       0.00658173 Eh      4.13 kcal/mol|
|  sn=12 | S(rot)=       0.00649958 Eh      4.08 kcal/mol|
 --------------------------------------------------------

-------------------
GIBBS FREE ENERGY
-------------------

The Gibbs free energy is G = H - T*S

Total enthalpy                    ...    -78.58147338 Eh
Total entropy correction          ...     -0.02618525 Eh    -16.43 kcal/mol
-----------------------------------------------------------------------
Final Gibbs free energy         ...    -78.60765864 Eh

For completeness - the Gibbs free energy minus the electronic energy
G-E(el)                           ...      0.02807757 Eh     17.62 kcal/mol

                             ****ORCA TERMINATED NORMALLY****
TOTAL RUN TIME: 0 days 0 hours 0 minutes 40 seconds 152 msec
