                         Program Version 4.2.0 -  RELEASE  -
|  1> #
|  2> # 04_CCl2 tpss/aug-cc-pvt(+d)z
|  3> #
|  4> ! tpss d3bj aug-cc-pvt(+d)z def2/j opt xyzfile numfreq
|  5>
|  6> *xyz 0 1
|  7> C           -0.000001096         -0.034087471          0.023432751
|  8> Cl          -0.000006529          0.957613518         -1.373095207
|  9> Cl           0.000007625          0.959794548          1.418391908
| 10> *
| 11>
| 12> %pal
| 13> nprocs 24
| 14> end
| 15>
| 16>
| 17>                          ****END OF INPUT****
 Total Charge           Charge          ....    0
 Multiplicity           Mult            ....    1
 Number of Electrons    NEL             ....   40
Dispersion correction           -0.003033248
FINAL SINGLE POINT ENERGY      -958.510803211425
Dispersion correction            ... done
Dispersion correction           -0.003025153
FINAL SINGLE POINT ENERGY      -958.511158341762
Dispersion correction            ... done
Dispersion correction           -0.003021911
FINAL SINGLE POINT ENERGY      -958.511232421115
Dispersion correction            ... done
Dispersion correction           -0.003022250
FINAL SINGLE POINT ENERGY      -958.511224821010
Dispersion correction            ... done
Dispersion correction           -0.003022491
FINAL SINGLE POINT ENERGY      -958.511223705945
Dispersion correction            ... done
                    ***********************HURRAY********************

CARTESIAN COORDINATES (ANGSTROEM)
---------------------------------
  C     -0.000001   -0.047599    0.023437
  Cl    -0.000007    0.964352   -1.392051
  Cl     0.000008    0.966567    1.437344

 Multiplicity           Mult            ....    1
 Number of Electrons    NEL             ....   40
 Basis Dimension        Dim             ....  156

ORBITAL ENERGIES
----------------

  NO   OCC          E(Eh)            E(eV)
   0   2.0000    -101.069801     -2750.2491
   1   2.0000    -101.069790     -2750.2488
   2   2.0000     -10.144270      -276.0396
   3   2.0000      -9.296247      -252.9637
   4   2.0000      -9.296239      -252.9635
   5   2.0000      -7.075902      -192.5451
   6   2.0000      -7.075894      -192.5449
   7   2.0000      -7.070562      -192.3998
   8   2.0000      -7.070553      -192.3995
   9   2.0000      -7.066386      -192.2862
  10   2.0000      -7.066378      -192.2859
  11   2.0000      -0.870795       -23.6955
  12   2.0000      -0.799789       -21.7634
  13   2.0000      -0.566984       -15.4284
  14   2.0000      -0.433474       -11.7954
  15   2.0000      -0.383494       -10.4354
  16   2.0000      -0.378974       -10.3124
  17   2.0000      -0.326150        -8.8750
  18   2.0000      -0.300294        -8.1714
  19   2.0000      -0.241026        -6.5587
  20   0.0000      -0.162688        -4.4270
  21   0.0000      -0.048557        -1.3213
  22   0.0000      -0.006327        -0.1722
  23   0.0000       0.003911         0.1064
  24   0.0000       0.036004         0.9797

MULLIKEN ATOMIC CHARGES
-----------------------
   0 C :   -0.246846
   1 Cl:    0.123457
   2 Cl:    0.123388
Sum of atomic charges:   -0.0000000

LOEWDIN ATOMIC CHARGES
----------------------
   0 C :   -1.267673
   1 Cl:    0.633834
   2 Cl:    0.633838

  Mayer bond orders larger than 0.100000
B(  0-C ,  1-Cl) :   1.0838 B(  0-C ,  2-Cl) :   1.0838 B(  1-Cl,  2-Cl) :   0.1356

Dispersion correction           -0.003022531
FINAL SINGLE POINT ENERGY      -958.511223822039

DIPOLE MOMENT
-------------
                                X             Y             Z
Electronic contribution:      0.00000       0.78974      -0.00059
Nuclear contribution   :     -0.00000      -0.39393       0.00031
                        -----------------------------------------
Total Dipole Moment    :      0.00000       0.39581      -0.00029
                        -----------------------------------------
Magnitude (a.u.)       :      0.39581
Magnitude (Debye)      :      1.00607

VIBRATIONAL FREQUENCIES
-----------------------

Scaling factor for frequencies =  1.000000000 (already applied!)

   0:         0.00 cm**-1
   1:         0.00 cm**-1
   2:         0.00 cm**-1
   3:         0.00 cm**-1
   4:         0.00 cm**-1
   5:         0.00 cm**-1
   6:       318.39 cm**-1
   7:       687.90 cm**-1
   8:       691.09 cm**-1

IR SPECTRUM
-----------

 Mode    freq (cm**-1)   T**2         TX         TY         TZ
-------------------------------------------------------------------
   6:       318.39    0.620077  (  0.000003   0.787450   0.000718)
   7:       687.90   24.211563  (  0.000007   4.919495  -0.100661)
   8:       691.09  345.917610  ( -0.000061  -0.035168 -18.598827)

--------------------------
THERMOCHEMISTRY AT 298.15K
--------------------------

Temperature         ... 298.15 K
Pressure            ... 1.00 atm
Total Mass          ... 82.92 AMU

Throughout the following assumptions are being made:
  (1) The electronic state is orbitally nondegenerate
  (2) There are no thermally accessible electronically excited states
  (3) Hindered rotations indicated by low frequency modes are not
      treated as such but are treated as vibrations and this may
      cause some error
  (4) All equations used are the standard statistical mechanics
      equations for an ideal gas
  (5) All vibrations are strictly harmonic

freq.     318.39  E(vib)   ...       0.25
freq.     687.90  E(vib)   ...       0.07
freq.     691.09  E(vib)   ...       0.07

------------
INNER ENERGY
------------

The inner energy is: U= E(el) + E(ZPE) + E(vib) + E(rot) + E(trans)
    E(el)   - is the total energy from the electronic structure calculation
              = E(kin-el) + E(nuc-el) + E(el-el) + E(nuc-nuc)
    E(ZPE)  - the the zero temperature vibrational energy from the frequency calculation
    E(vib)  - the the finite temperature correction to E(ZPE) due to population
              of excited vibrational states
    E(rot)  - is the rotational thermal energy
    E(trans)- is the translational thermal energy

Summary of contributions to the inner energy U:
Electronic energy                ...   -958.51122382 Eh
Zero point energy                ...      0.00386693 Eh       2.43 kcal/mol
Thermal vibrational correction   ...      0.00063161 Eh       0.40 kcal/mol
Thermal rotational correction    ...      0.00141627 Eh       0.89 kcal/mol
Thermal translational correction ...      0.00141627 Eh       0.89 kcal/mol
-----------------------------------------------------------------------
Total thermal energy                   -958.50389274 Eh

Summary of corrections to the electronic energy:
(perhaps to be used in another calculation)
Total thermal correction                  0.00346415 Eh       2.17 kcal/mol
Non-thermal (ZPE) correction              0.00386693 Eh       2.43 kcal/mol
-----------------------------------------------------------------------
Total correction                          0.00733108 Eh       4.60 kcal/mol

--------
ENTHALPY
--------

The enthalpy is H = U + kB*T
                kB is Boltzmann's constant
Total free energy                 ...   -958.50389274 Eh
Thermal Enthalpy correction       ...      0.00094421 Eh       0.59 kcal/mol
-----------------------------------------------------------------------
Total Enthalpy                    ...   -958.50294853 Eh

Note: Rotational entropy computed according to Herzberg
Infrared and Raman Spectra, Chapter V,1, Van Nostrand Reinhold, 1945
Point Group:  Cs, Symmetry Number:   1
Rotational constants in cm-1:     1.599222     0.118792     0.110578

Vibrational entropy computed according to the QRRHO of S. Grimme
Chem.Eur.J. 2012 18 9955

-------
ENTROPY
-------

The entropy contributions are T*S = T*(S(el)+S(vib)+S(rot)+S(trans))
     S(el)   - electronic entropy
     S(vib)  - vibrational entropy
     S(rot)  - rotational entropy
     S(trans)- translational entropy
The entropies will be listed as mutliplied by the temperature to get
units of energy

Electronic entropy                ...      0.00000000 Eh      0.00 kcal/mol
Vibrational entropy               ...      0.00093139 Eh      0.58 kcal/mol
Rotational entropy                ...      0.01133445 Eh      7.11 kcal/mol
Translational entropy             ...      0.01860593 Eh     11.68 kcal/mol
-----------------------------------------------------------------------
Final entropy term                ...      0.03087177 Eh     19.37 kcal/mol

In case the symmetry of your molecule has not been determined correctly
or in case you have a reason to use a different symmetry number we print
out the resulting rotational entropy values for sn=1,12 :
 --------------------------------------------------------
|  sn= 1 | S(rot)=       0.01133445 Eh      7.11 kcal/mol|
|  sn= 2 | S(rot)=       0.01067999 Eh      6.70 kcal/mol|
|  sn= 3 | S(rot)=       0.01029716 Eh      6.46 kcal/mol|
|  sn= 4 | S(rot)=       0.01002554 Eh      6.29 kcal/mol|
|  sn= 5 | S(rot)=       0.00981485 Eh      6.16 kcal/mol|
|  sn= 6 | S(rot)=       0.00964270 Eh      6.05 kcal/mol|
|  sn= 7 | S(rot)=       0.00949716 Eh      5.96 kcal/mol|
|  sn= 8 | S(rot)=       0.00937108 Eh      5.88 kcal/mol|
|  sn= 9 | S(rot)=       0.00925987 Eh      5.81 kcal/mol|
|  sn=10 | S(rot)=       0.00916039 Eh      5.75 kcal/mol|
|  sn=11 | S(rot)=       0.00907040 Eh      5.69 kcal/mol|
|  sn=12 | S(rot)=       0.00898825 Eh      5.64 kcal/mol|
 --------------------------------------------------------

-------------------
GIBBS FREE ENERGY
-------------------

The Gibbs free energy is G = H - T*S

Total enthalpy                    ...   -958.50294853 Eh
Total entropy correction          ...     -0.03087177 Eh    -19.37 kcal/mol
-----------------------------------------------------------------------
Final Gibbs free energy         ...   -958.53382030 Eh

For completeness - the Gibbs free energy minus the electronic energy
G-E(el)                           ...     -0.02259648 Eh    -14.18 kcal/mol

                             ****ORCA TERMINATED NORMALLY****
TOTAL RUN TIME: 0 days 0 hours 0 minutes 41 seconds 11 msec
