                         Program Version 4.2.0 -  RELEASE  -
|  1> #
|  2> # 05_CF2 tpss/aug-cc-pvt(+d)z
|  3> #
|  4> ! tpss d3bj aug-cc-pvt(+d)z def2/j opt xyzfile numfreq
|  5>
|  6> *xyz 0 1
|  7> C           -0.000000060          0.136363107         -0.000000094
|  8> F            0.000000126          0.931818632         -1.030127802
|  9> F           -0.000000065          0.931818256          1.030127896
| 10> *
| 11>
| 12> %pal
| 13> nprocs 24
| 14> end
| 15>
| 16>
| 17>                          ****END OF INPUT****
 Total Charge           Charge          ....    0
 Multiplicity           Mult            ....    1
 Number of Electrons    NEL             ....   24
Dispersion correction           -0.000827692
FINAL SINGLE POINT ENERGY      -237.819663424194
Dispersion correction            ... done
Dispersion correction           -0.000827396
FINAL SINGLE POINT ENERGY      -237.820091809655
Dispersion correction            ... done
Dispersion correction           -0.000827351
FINAL SINGLE POINT ENERGY      -237.820156059771
Dispersion correction            ... done
Dispersion correction           -0.000827324
FINAL SINGLE POINT ENERGY      -237.820160435069
Dispersion correction            ... done
                    ***********************HURRAY********************

CARTESIAN COORDINATES (ANGSTROEM)
---------------------------------
  C     -0.000000    0.125045   -0.000000
  F      0.000000    0.937478   -1.039431
  F     -0.000000    0.937478    1.039431

 Multiplicity           Mult            ....    1
 Number of Electrons    NEL             ....   24
 Basis Dimension        Dim             ....  138

ORBITAL ENERGIES
----------------

  NO   OCC          E(Eh)            E(eV)
   0   2.0000     -24.494358      -666.5254
   1   2.0000     -24.494358      -666.5254
   2   2.0000     -10.193054      -277.3671
   3   2.0000      -1.258511       -34.2458
   4   2.0000      -1.188789       -32.3486
   5   2.0000      -0.653827       -17.7915
   6   2.0000      -0.550110       -14.9692
   7   2.0000      -0.504444       -13.7266
   8   2.0000      -0.492581       -13.4038
   9   2.0000      -0.432368       -11.7653
  10   2.0000      -0.401595       -10.9280
  11   2.0000      -0.279519        -7.6061
  12   0.0000      -0.133753        -3.6396
  13   0.0000       0.011378         0.3096
  14   0.0000       0.025759         0.7009
  15   0.0000       0.039689         1.0800
  16   0.0000       0.041659         1.1336

MULLIKEN ATOMIC CHARGES
-----------------------
   0 C :    0.264501
   1 F :   -0.132250
   2 F :   -0.132250
Sum of atomic charges:   -0.0000000

LOEWDIN ATOMIC CHARGES
----------------------
   0 C :   -0.674092
   1 F :    0.337046
   2 F :    0.337046

  Mayer bond orders larger than 0.100000
B(  0-C ,  1-F ) :   1.0851 B(  0-C ,  2-F ) :   1.0851

Dispersion correction           -0.000827326
FINAL SINGLE POINT ENERGY      -237.820160124938

DIPOLE MOMENT
-------------
                                X             Y             Z
Electronic contribution:      0.00000       0.59692       0.00000
Nuclear contribution   :     -0.00000      -0.36160      -0.00000
                        -----------------------------------------
Total Dipole Moment    :      0.00000       0.23532       0.00000
                        -----------------------------------------
Magnitude (a.u.)       :      0.23532
Magnitude (Debye)      :      0.59814

VIBRATIONAL FREQUENCIES
-----------------------

Scaling factor for frequencies =  1.000000000 (already applied!)

   0:         0.00 cm**-1
   1:         0.00 cm**-1
   2:         0.00 cm**-1
   3:         0.00 cm**-1
   4:         0.00 cm**-1
   5:         0.00 cm**-1
   6:       646.30 cm**-1
   7:      1042.63 cm**-1
   8:      1170.05 cm**-1

IR SPECTRUM
-----------

 Mode    freq (cm**-1)   T**2         TX         TY         TZ
-------------------------------------------------------------------
   6:       646.30    1.939289  (  0.000000  -1.392584  -0.000010)
   7:      1042.63  356.956914  (  0.000001  -0.000048  18.893303)
   8:      1170.05  107.349226  ( -0.000001 -10.360947  -0.000081)

--------------------------
THERMOCHEMISTRY AT 298.15K
--------------------------

Temperature         ... 298.15 K
Pressure            ... 1.00 atm
Total Mass          ... 50.01 AMU

Throughout the following assumptions are being made:
  (1) The electronic state is orbitally nondegenerate
  (2) There are no thermally accessible electronically excited states
  (3) Hindered rotations indicated by low frequency modes are not
      treated as such but are treated as vibrations and this may
      cause some error
  (4) All equations used are the standard statistical mechanics
      equations for an ideal gas
  (5) All vibrations are strictly harmonic

freq.     646.30  E(vib)   ...       0.09
freq.    1042.63  E(vib)   ...       0.02
freq.    1170.05  E(vib)   ...       0.01

------------
INNER ENERGY
------------

The inner energy is: U= E(el) + E(ZPE) + E(vib) + E(rot) + E(trans)
    E(el)   - is the total energy from the electronic structure calculation
              = E(kin-el) + E(nuc-el) + E(el-el) + E(nuc-nuc)
    E(ZPE)  - the the zero temperature vibrational energy from the frequency calculation
    E(vib)  - the the finite temperature correction to E(ZPE) due to population
              of excited vibrational states
    E(rot)  - is the rotational thermal energy
    E(trans)- is the translational thermal energy

Summary of contributions to the inner energy U:
Electronic energy                ...   -237.82016012 Eh
Zero point energy                ...      0.00651322 Eh       4.09 kcal/mol
Thermal vibrational correction   ...      0.00018634 Eh       0.12 kcal/mol
Thermal rotational correction    ...      0.00141627 Eh       0.89 kcal/mol
Thermal translational correction ...      0.00141627 Eh       0.89 kcal/mol
-----------------------------------------------------------------------
Total thermal energy                   -237.81062802 Eh

Summary of corrections to the electronic energy:
(perhaps to be used in another calculation)
Total thermal correction                  0.00301888 Eh       1.89 kcal/mol
Non-thermal (ZPE) correction              0.00651322 Eh       4.09 kcal/mol
-----------------------------------------------------------------------
Total correction                          0.00953210 Eh       5.98 kcal/mol

--------
ENTHALPY
--------

The enthalpy is H = U + kB*T
                kB is Boltzmann's constant
Total free energy                 ...   -237.81062802 Eh
Thermal Enthalpy correction       ...      0.00094421 Eh       0.59 kcal/mol
-----------------------------------------------------------------------
Total Enthalpy                    ...   -237.80968381 Eh

Note: Rotational entropy computed according to Herzberg
Infrared and Raman Spectra, Chapter V,1, Van Nostrand Reinhold, 1945
Point Group:  C2v, Symmetry Number:   2
Rotational constants in cm-1:     2.798565     0.410646     0.358100

Vibrational entropy computed according to the QRRHO of S. Grimme
Chem.Eur.J. 2012 18 9955

-------
ENTROPY
-------

The entropy contributions are T*S = T*(S(el)+S(vib)+S(rot)+S(trans))
     S(el)   - electronic entropy
     S(vib)  - vibrational entropy
     S(rot)  - rotational entropy
     S(trans)- translational entropy
The entropies will be listed as mutliplied by the temperature to get
units of energy

Electronic entropy                ...      0.00000000 Eh      0.00 kcal/mol
Vibrational entropy               ...      0.00023875 Eh      0.15 kcal/mol
Rotational entropy                ...      0.00927550 Eh      5.82 kcal/mol
Translational entropy             ...      0.01788976 Eh     11.23 kcal/mol
-----------------------------------------------------------------------
Final entropy term                ...      0.02740401 Eh     17.20 kcal/mol

In case the symmetry of your molecule has not been determined correctly
or in case you have a reason to use a different symmetry number we print
out the resulting rotational entropy values for sn=1,12 :
 --------------------------------------------------------
|  sn= 1 | S(rot)=       0.00992996 Eh      6.23 kcal/mol|
|  sn= 2 | S(rot)=       0.00927550 Eh      5.82 kcal/mol|
|  sn= 3 | S(rot)=       0.00889267 Eh      5.58 kcal/mol|
|  sn= 4 | S(rot)=       0.00862105 Eh      5.41 kcal/mol|
|  sn= 5 | S(rot)=       0.00841036 Eh      5.28 kcal/mol|
|  sn= 6 | S(rot)=       0.00823822 Eh      5.17 kcal/mol|
|  sn= 7 | S(rot)=       0.00809267 Eh      5.08 kcal/mol|
|  sn= 8 | S(rot)=       0.00796659 Eh      5.00 kcal/mol|
|  sn= 9 | S(rot)=       0.00785538 Eh      4.93 kcal/mol|
|  sn=10 | S(rot)=       0.00775590 Eh      4.87 kcal/mol|
|  sn=11 | S(rot)=       0.00766591 Eh      4.81 kcal/mol|
|  sn=12 | S(rot)=       0.00758376 Eh      4.76 kcal/mol|
 --------------------------------------------------------

-------------------
GIBBS FREE ENERGY
-------------------

The Gibbs free energy is G = H - T*S

Total enthalpy                    ...   -237.80968381 Eh
Total entropy correction          ...     -0.02740401 Eh    -17.20 kcal/mol
-----------------------------------------------------------------------
Final Gibbs free energy         ...   -237.83708782 Eh

For completeness - the Gibbs free energy minus the electronic energy
G-E(el)                           ...     -0.01692770 Eh    -10.62 kcal/mol

                             ****ORCA TERMINATED NORMALLY****
TOTAL RUN TIME: 0 days 0 hours 0 minutes 29 seconds 963 msec
