                         Program Version 4.2.0 -  RELEASE  -
|  1> #
|  2> # 06_CH4 tpss/aug-cc-pvt(+d)z
|  3> #
|  4> ! tpss d3bj aug-cc-pvt(+d)z def2/j opt xyzfile numfreq
|  5>
|  6> *xyz 0 1
|  7> C           -0.000019863          0.000010602          0.000009334
|  8> H            0.553735898          0.798934116          0.495881879
|  9> H            0.682720826         -0.812639290         -0.253504979
| 10> H           -0.777369102         -0.373181326          0.668786102
| 11> H           -0.459167758          0.386975897         -0.911172431
| 12> *
| 13>
| 14> %pal
| 15> nprocs 24
| 16> end
| 17>
| 18>
| 19>                          ****END OF INPUT****
 Total Charge           Charge          ....    0
 Multiplicity           Mult            ....    1
 Number of Electrons    NEL             ....   10
Dispersion correction           -0.001396275
FINAL SINGLE POINT ENERGY       -40.542473951039
Dispersion correction            ... done
Dispersion correction           -0.001396237
FINAL SINGLE POINT ENERGY       -40.542476399716
Dispersion correction            ... done
                    ***********************HURRAY********************

CARTESIAN COORDINATES (ANGSTROEM)
---------------------------------
  C      0.000014   -0.000045    0.000053
  H      0.554225    0.799917    0.496293
  H      0.683290   -0.813411   -0.254015
  H     -0.778285   -0.373534    0.669440
  H     -0.459344    0.387173   -0.911772

 Multiplicity           Mult            ....    1
 Number of Electrons    NEL             ....   10
 Basis Dimension        Dim             ....  138

ORBITAL ENERGIES
----------------

  NO   OCC          E(Eh)            E(eV)
   0   2.0000      -9.973167      -271.3837
   1   2.0000      -0.642957       -17.4957
   2   2.0000      -0.354215        -9.6387
   3   2.0000      -0.354163        -9.6373
   4   2.0000      -0.354105        -9.6357
   5   0.0000      -0.009299        -0.2530
   6   0.0000       0.027297         0.7428
   7   0.0000       0.027310         0.7431
   8   0.0000       0.027363         0.7446
   9   0.0000       0.081310         2.2126

MULLIKEN ATOMIC CHARGES
-----------------------
   0 C :   -0.527384
   1 H :    0.129855
   2 H :    0.135587
   3 H :    0.144694
   4 H :    0.117248
Sum of atomic charges:   -0.0000000

LOEWDIN ATOMIC CHARGES
----------------------
   0 C :    0.856792
   1 H :   -0.213934
   2 H :   -0.214569
   3 H :   -0.214257
   4 H :   -0.214033

  Mayer bond orders larger than 0.100000
B(  0-C ,  1-H ) :   0.9793 B(  0-C ,  2-H ) :   0.9594 B(  0-C ,  3-H ) :   0.9579
B(  0-C ,  4-H ) :   0.9906

Dispersion correction           -0.001396235
FINAL SINGLE POINT ENERGY       -40.542476394545

DIPOLE MOMENT
-------------
                                X             Y             Z
Electronic contribution:     -0.00110       0.00147      -0.00289
Nuclear contribution   :     -0.00012       0.00023      -0.00019
                        -----------------------------------------
Total Dipole Moment    :     -0.00122       0.00170      -0.00307
                        -----------------------------------------
Magnitude (a.u.)       :      0.00372
Magnitude (Debye)      :      0.00946

VIBRATIONAL FREQUENCIES
-----------------------

Scaling factor for frequencies =  1.000000000 (already applied!)

   0:         0.00 cm**-1
   1:         0.00 cm**-1
   2:         0.00 cm**-1
   3:         0.00 cm**-1
   4:         0.00 cm**-1
   5:         0.00 cm**-1
   6:      1338.63 cm**-1
   7:      1339.44 cm**-1
   8:      1339.72 cm**-1
   9:      1557.09 cm**-1
  10:      1559.28 cm**-1
  11:      2996.83 cm**-1
  12:      3095.57 cm**-1
  13:      3097.35 cm**-1
  14:      3100.80 cm**-1

IR SPECTRUM
-----------

 Mode    freq (cm**-1)   T**2         TX         TY         TZ
-------------------------------------------------------------------
   6:      1338.63    9.167490  ( -2.112155  -1.032932  -1.907707)
   7:      1339.44    8.473541  (  2.191042  -0.464362  -1.859366)
   8:      1339.72    8.755242  ( -0.518321   2.663712  -1.179501)
   9:      1557.09    0.053048  (  0.099337   0.192152   0.079106)
  10:      1559.28    0.042236  (  0.001602  -0.100979  -0.178989)
  11:      2996.83    0.033841  (  0.022541  -0.042561   0.177544)
  12:      3095.57   24.206125  (  2.281972   4.088155   1.511858)
  13:      3097.35   27.386342  ( -3.524100   0.379659   3.850055)
  14:      3100.80   27.196999  ( -3.173958   2.854945  -2.995376)

--------------------------
THERMOCHEMISTRY AT 298.15K
--------------------------

Temperature         ... 298.15 K
Pressure            ... 1.00 atm
Total Mass          ... 16.04 AMU

Throughout the following assumptions are being made:
  (1) The electronic state is orbitally nondegenerate
  (2) There are no thermally accessible electronically excited states
  (3) Hindered rotations indicated by low frequency modes are not
      treated as such but are treated as vibrations and this may
      cause some error
  (4) All equations used are the standard statistical mechanics
      equations for an ideal gas
  (5) All vibrations are strictly harmonic

freq.    1338.63  E(vib)   ...       0.01
freq.    1339.44  E(vib)   ...       0.01
freq.    1339.72  E(vib)   ...       0.01
freq.    1557.09  E(vib)   ...       0.00
freq.    1559.28  E(vib)   ...       0.00
freq.    2996.83  E(vib)   ...       0.00
freq.    3095.57  E(vib)   ...       0.00
freq.    3097.35  E(vib)   ...       0.00
freq.    3100.80  E(vib)   ...       0.00

------------
INNER ENERGY
------------

The inner energy is: U= E(el) + E(ZPE) + E(vib) + E(rot) + E(trans)
    E(el)   - is the total energy from the electronic structure calculation
              = E(kin-el) + E(nuc-el) + E(el-el) + E(nuc-nuc)
    E(ZPE)  - the the zero temperature vibrational energy from the frequency calculation
    E(vib)  - the the finite temperature correction to E(ZPE) due to population
              of excited vibrational states
    E(rot)  - is the rotational thermal energy
    E(trans)- is the translational thermal energy

Summary of contributions to the inner energy U:
Electronic energy                ...    -40.54247639 Eh
Zero point energy                ...      0.04425274 Eh      27.77 kcal/mol
Thermal vibrational correction   ...      0.00003634 Eh       0.02 kcal/mol
Thermal rotational correction    ...      0.00141627 Eh       0.89 kcal/mol
Thermal translational correction ...      0.00141627 Eh       0.89 kcal/mol
-----------------------------------------------------------------------
Total thermal energy                    -40.49535476 Eh

Summary of corrections to the electronic energy:
(perhaps to be used in another calculation)
Total thermal correction                  0.00286889 Eh       1.80 kcal/mol
Non-thermal (ZPE) correction              0.04425274 Eh      27.77 kcal/mol
-----------------------------------------------------------------------
Total correction                          0.04712163 Eh      29.57 kcal/mol

--------
ENTHALPY
--------

The enthalpy is H = U + kB*T
                kB is Boltzmann's constant
Total free energy                 ...    -40.49535476 Eh
Thermal Enthalpy correction       ...      0.00094421 Eh       0.59 kcal/mol
-----------------------------------------------------------------------
Total Enthalpy                    ...    -40.49441056 Eh

Note: Only C1 symmetry has been detected, increase convergence thresholds
      if your molecule has a higher symmetry. Symmetry factor of 1.0 is
      used for the rotational entropy correction.

Note: Rotational entropy computed according to Herzberg
Infrared and Raman Spectra, Chapter V,1, Van Nostrand Reinhold, 1945
Point Group:  C1, Symmetry Number:   1
Rotational constants in cm-1:     5.257869     5.257797     5.254884

Vibrational entropy computed according to the QRRHO of S. Grimme
Chem.Eur.J. 2012 18 9955

-------
ENTROPY
-------

The entropy contributions are T*S = T*(S(el)+S(vib)+S(rot)+S(trans))
     S(el)   - electronic entropy
     S(vib)  - vibrational entropy
     S(rot)  - rotational entropy
     S(trans)- translational entropy
The entropies will be listed as mutliplied by the temperature to get
units of energy

Electronic entropy                ...      0.00000000 Eh      0.00 kcal/mol
Vibrational entropy               ...      0.00004180 Eh      0.03 kcal/mol
Rotational entropy                ...      0.00716046 Eh      4.49 kcal/mol
Translational entropy             ...      0.01627961 Eh     10.22 kcal/mol
-----------------------------------------------------------------------
Final entropy term                ...      0.02348188 Eh     14.74 kcal/mol

In case the symmetry of your molecule has not been determined correctly
or in case you have a reason to use a different symmetry number we print
out the resulting rotational entropy values for sn=1,12 :
 --------------------------------------------------------
|  sn= 1 | S(rot)=       0.00716046 Eh      4.49 kcal/mol|
|  sn= 2 | S(rot)=       0.00650601 Eh      4.08 kcal/mol|
|  sn= 3 | S(rot)=       0.00612317 Eh      3.84 kcal/mol|
|  sn= 4 | S(rot)=       0.00585155 Eh      3.67 kcal/mol|
|  sn= 5 | S(rot)=       0.00564086 Eh      3.54 kcal/mol|
|  sn= 6 | S(rot)=       0.00546872 Eh      3.43 kcal/mol|
|  sn= 7 | S(rot)=       0.00532317 Eh      3.34 kcal/mol|
|  sn= 8 | S(rot)=       0.00519709 Eh      3.26 kcal/mol|
|  sn= 9 | S(rot)=       0.00508588 Eh      3.19 kcal/mol|
|  sn=10 | S(rot)=       0.00498641 Eh      3.13 kcal/mol|
|  sn=11 | S(rot)=       0.00489642 Eh      3.07 kcal/mol|
|  sn=12 | S(rot)=       0.00481426 Eh      3.02 kcal/mol|
 --------------------------------------------------------

-------------------
GIBBS FREE ENERGY
-------------------

The Gibbs free energy is G = H - T*S

Total enthalpy                    ...    -40.49441056 Eh
Total entropy correction          ...     -0.02348188 Eh    -14.74 kcal/mol
-----------------------------------------------------------------------
Final Gibbs free energy         ...    -40.51789243 Eh

For completeness - the Gibbs free energy minus the electronic energy
G-E(el)                           ...      0.02458396 Eh     15.43 kcal/mol

                             ****ORCA TERMINATED NORMALLY****
TOTAL RUN TIME: 0 days 0 hours 0 minutes 24 seconds 809 msec
