                         Program Version 4.2.0 -  RELEASE  -
|  1> #
|  2> # 07_Cl2 tpss/aug-cc-pvt(+d)z
|  3> #
|  4> ! tpss d3bj aug-cc-pvt(+d)z def2/j opt xyzfile numfreq
|  5>
|  6> *xyz 0 1
|  7> Cl          -0.996696800          0.000000000         -0.000000015
|  8> Cl           0.996696800         -0.000000000          0.000000015
|  9> *
| 10>
| 11> %pal
| 12> nprocs 24
| 13> end
| 14>
| 15>
| 16>                          ****END OF INPUT****
 Total Charge           Charge          ....    0
 Multiplicity           Mult            ....    1
 Number of Electrons    NEL             ....   34
Dispersion correction           -0.001347309
FINAL SINGLE POINT ENERGY      -920.454105686239
Dispersion correction            ... done
Dispersion correction           -0.001346885
FINAL SINGLE POINT ENERGY      -920.454183750008
Dispersion correction            ... done
Dispersion correction           -0.001346577
FINAL SINGLE POINT ENERGY      -920.454197461239
Dispersion correction            ... done
                    ***********************HURRAY********************

CARTESIAN COORDINATES (ANGSTROEM)
---------------------------------
  Cl    -1.005385    0.000000   -0.000000
  Cl     1.005385    0.000000    0.000000

 Multiplicity           Mult            ....    1
 Number of Electrons    NEL             ....   34
 Basis Dimension        Dim             ....  110

ORBITAL ENERGIES
----------------

  NO   OCC          E(Eh)            E(eV)
   0   2.0000    -101.079286     -2750.5072
   1   2.0000    -101.079280     -2750.5070
   2   2.0000      -9.302512      -253.1342
   3   2.0000      -9.302496      -253.1338
   4   2.0000      -7.088335      -192.8834
   5   2.0000      -7.088217      -192.8802
   6   2.0000      -7.072021      -192.4395
   7   2.0000      -7.072021      -192.4395
   8   2.0000      -7.072013      -192.4393
   9   2.0000      -7.072013      -192.4393
  10   2.0000      -0.870118       -23.6771
  11   2.0000      -0.718302       -19.5460
  12   2.0000      -0.442174       -12.0322
  13   2.0000      -0.370348       -10.0777
  14   2.0000      -0.370348       -10.0777
  15   2.0000      -0.274988        -7.4828
  16   2.0000      -0.274988        -7.4828
  17   0.0000      -0.158496        -4.3129
  18   0.0000       0.026000         0.7075
  19   0.0000       0.035660         0.9704
  20   0.0000       0.051415         1.3991
  21   0.0000       0.051415         1.3991

MULLIKEN ATOMIC CHARGES
-----------------------
   0 Cl:    0.000000
   1 Cl:   -0.000000
Sum of atomic charges:    0.0000000

LOEWDIN ATOMIC CHARGES
----------------------
   0 Cl:   -0.000000
   1 Cl:    0.000000

  Mayer bond orders larger than 0.100000
B(  0-Cl,  1-Cl) :   0.9830

Dispersion correction           -0.001346564
FINAL SINGLE POINT ENERGY      -920.454197305539

DIPOLE MOMENT
-------------
                                X             Y             Z
Electronic contribution:      0.00000      -0.00000       0.00000
Nuclear contribution   :      0.00000       0.00000       0.00000
                        -----------------------------------------
Total Dipole Moment    :      0.00000      -0.00000       0.00000
                        -----------------------------------------
Magnitude (a.u.)       :      0.00000
Magnitude (Debye)      :      0.00000

VIBRATIONAL FREQUENCIES
-----------------------

Scaling factor for frequencies =  1.000000000 (already applied!)

   0:         0.00 cm**-1
   1:         0.00 cm**-1
   2:         0.00 cm**-1
   3:         0.00 cm**-1
   4:         0.00 cm**-1
   5:       530.60 cm**-1

IR SPECTRUM
-----------

 Mode    freq (cm**-1)   T**2         TX         TY         TZ
-------------------------------------------------------------------
   5:       530.60    0.000000  (  0.000000  -0.000000  -0.000000)

--------------------------
THERMOCHEMISTRY AT 298.15K
--------------------------

Temperature         ... 298.15 K
Pressure            ... 1.00 atm
Total Mass          ... 70.91 AMU
The molecule is recognized as being linear

Throughout the following assumptions are being made:
  (1) The electronic state is orbitally nondegenerate
  (2) There are no thermally accessible electronically excited states
  (3) Hindered rotations indicated by low frequency modes are not
      treated as such but are treated as vibrations and this may
      cause some error
  (4) All equations used are the standard statistical mechanics
      equations for an ideal gas
  (5) All vibrations are strictly harmonic

freq.     530.60  E(vib)   ...       0.13

------------
INNER ENERGY
------------

The inner energy is: U= E(el) + E(ZPE) + E(vib) + E(rot) + E(trans)
    E(el)   - is the total energy from the electronic structure calculation
              = E(kin-el) + E(nuc-el) + E(el-el) + E(nuc-nuc)
    E(ZPE)  - the the zero temperature vibrational energy from the frequency calculation
    E(vib)  - the the finite temperature correction to E(ZPE) due to population
              of excited vibrational states
    E(rot)  - is the rotational thermal energy
    E(trans)- is the translational thermal energy

Summary of contributions to the inner energy U:
Electronic energy                ...   -920.45419731 Eh
Zero point energy                ...      0.00120880 Eh       0.76 kcal/mol
Thermal vibrational correction   ...      0.00020245 Eh       0.13 kcal/mol
Thermal rotational correction    ...      0.00094418 Eh       0.59 kcal/mol
Thermal translational correction ...      0.00141627 Eh       0.89 kcal/mol
-----------------------------------------------------------------------
Total thermal energy                   -920.45042560 Eh

Summary of corrections to the electronic energy:
(perhaps to be used in another calculation)
Total thermal correction                  0.00256290 Eh       1.61 kcal/mol
Non-thermal (ZPE) correction              0.00120880 Eh       0.76 kcal/mol
-----------------------------------------------------------------------
Total correction                          0.00377170 Eh       2.37 kcal/mol

--------
ENTHALPY
--------

The enthalpy is H = U + kB*T
                kB is Boltzmann's constant
Total free energy                 ...   -920.45042560 Eh
Thermal Enthalpy correction       ...      0.00094421 Eh       0.59 kcal/mol
-----------------------------------------------------------------------
Total Enthalpy                    ...   -920.44948140 Eh

Note: Rotational entropy computed according to Herzberg
Infrared and Raman Spectra, Chapter V,1, Van Nostrand Reinhold, 1945
Point Group:  Dinfh, Symmetry Number:   2
Rotational constants in cm-1:     0.000000     0.235206     0.235206

Vibrational entropy computed according to the QRRHO of S. Grimme
Chem.Eur.J. 2012 18 9955

-------
ENTROPY
-------

The entropy contributions are T*S = T*(S(el)+S(vib)+S(rot)+S(trans))
     S(el)   - electronic entropy
     S(vib)  - vibrational entropy
     S(rot)  - rotational entropy
     S(trans)- translational entropy
The entropies will be listed as mutliplied by the temperature to get
units of energy

Electronic entropy                ...      0.00000000 Eh      0.00 kcal/mol
Vibrational entropy               ...      0.00027874 Eh      0.17 kcal/mol
Rotational entropy                ...      0.00669231 Eh      4.20 kcal/mol
Translational entropy             ...      0.01838431 Eh     11.54 kcal/mol
-----------------------------------------------------------------------
Final entropy term                ...      0.02535536 Eh     15.91 kcal/mol

In case the symmetry of your molecule has not been determined correctly
or in case you have a reason to use a different symmetry number we print
out the resulting rotational entropy values for sn=1,12 :
 --------------------------------------------------------
|  sn= 1 | S(rot)=             -nan Eh      -nan kcal/mol|
|  sn= 2 | S(rot)=             -nan Eh      -nan kcal/mol|
|  sn= 3 | S(rot)=             -nan Eh      -nan kcal/mol|
|  sn= 4 | S(rot)=             -nan Eh      -nan kcal/mol|
|  sn= 5 | S(rot)=             -nan Eh      -nan kcal/mol|
|  sn= 6 | S(rot)=             -nan Eh      -nan kcal/mol|
|  sn= 7 | S(rot)=             -nan Eh      -nan kcal/mol|
|  sn= 8 | S(rot)=             -nan Eh      -nan kcal/mol|
|  sn= 9 | S(rot)=             -nan Eh      -nan kcal/mol|
|  sn=10 | S(rot)=             -nan Eh      -nan kcal/mol|
|  sn=11 | S(rot)=             -nan Eh      -nan kcal/mol|
|  sn=12 | S(rot)=             -nan Eh      -nan kcal/mol|
 --------------------------------------------------------

-------------------
GIBBS FREE ENERGY
-------------------

The Gibbs free energy is G = H - T*S

Total enthalpy                    ...   -920.44948140 Eh
Total entropy correction          ...     -0.02535536 Eh    -15.91 kcal/mol
-----------------------------------------------------------------------
Final Gibbs free energy         ...   -920.47483676 Eh

For completeness - the Gibbs free energy minus the electronic energy
G-E(el)                           ...     -0.02063945 Eh    -12.95 kcal/mol

                             ****ORCA TERMINATED NORMALLY****
TOTAL RUN TIME: 0 days 0 hours 0 minutes 22 seconds 285 msec
