                         Program Version 4.2.0 -  RELEASE  -
|  1> #
|  2> # 08_ClCN tpss/aug-cc-pvt(+d)z
|  3> #
|  4> ! tpss d3bj aug-cc-pvt(+d)z def2/j opt xyzfile numfreq
|  5>
|  6> *xyz 0 1
|  7> Cl          0.000000000          0.000000000          1.411403479
|  8> C           0.000000000          0.000000000         -0.154728403
|  9> N           0.000000000          0.000000000         -1.256675070
| 10> *
| 11>
| 12> %pal
| 13> nprocs 24
| 14> end
| 15>
| 16>
| 17>                          ****END OF INPUT****
 Total Charge           Charge          ....    0
 Multiplicity           Mult            ....    1
 Number of Electrons    NEL             ....   30
Dispersion correction           -0.002227352
FINAL SINGLE POINT ENERGY      -553.100264531368
Dispersion correction            ... done
Dispersion correction           -0.002209314
FINAL SINGLE POINT ENERGY      -553.111757184962
Dispersion correction            ... done
Dispersion correction           -0.002203345
FINAL SINGLE POINT ENERGY      -553.112364866172
Dispersion correction            ... done
FINAL SINGLE POINT ENERGY      -553.112425521698
Dispersion correction            ... done
Dispersion correction           -0.002200460
FINAL SINGLE POINT ENERGY      -553.112427344042
Dispersion correction            ... done
Dispersion correction           -0.002200465
FINAL SINGLE POINT ENERGY      -553.112426947161
Dispersion correction            ... done
                    ***********************HURRAY********************

CARTESIAN COORDINATES (ANGSTROEM)
---------------------------------
  Cl     0.000000   -0.000000    1.476991
  C     -0.000000    0.000000   -0.156299
  N      0.000000   -0.000000   -1.320692

 Multiplicity           Mult            ....    1
 Number of Electrons    NEL             ....   30
 Basis Dimension        Dim             ....  147

ORBITAL ENERGIES
----------------

  NO   OCC          E(Eh)            E(eV)
   0   2.0000    -101.111821     -2751.3925
   1   2.0000     -14.132250      -384.5581
   2   2.0000     -10.089038      -274.5367
   3   2.0000      -9.337069      -254.0746
   4   2.0000      -7.119491      -193.7312
   5   2.0000      -7.107980      -193.4180
   6   2.0000      -7.107980      -193.4180
   7   2.0000      -0.902450       -24.5569
   8   2.0000      -0.844924       -22.9916
   9   2.0000      -0.542131       -14.7521
  10   2.0000      -0.405050       -11.0220
  11   2.0000      -0.405050       -11.0220
  12   2.0000      -0.350463        -9.5366
  13   2.0000      -0.305341        -8.3087
  14   2.0000      -0.305341        -8.3087
  15   0.0000      -0.058127        -1.5817
  16   0.0000      -0.032838        -0.8936
  17   0.0000      -0.032838        -0.8936
  18   0.0000      -0.001695        -0.0461
  19   0.0000       0.029074         0.7911

MULLIKEN ATOMIC CHARGES
-----------------------
   0 Cl:    0.105528
   1 C :    0.111873
   2 N :   -0.217401
Sum of atomic charges:   -0.0000000

LOEWDIN ATOMIC CHARGES
----------------------
   0 Cl:    0.951667
   1 C :   -1.053580
   2 N :    0.101914

  Mayer bond orders larger than 0.100000
B(  0-Cl,  1-C ) :   1.0683 B(  0-Cl,  2-N ) :   0.1889 B(  1-C ,  2-N ) :   2.5599

Dispersion correction           -0.002200495
FINAL SINGLE POINT ENERGY      -553.112427068839

DIPOLE MOMENT
-------------
                                X             Y             Z
Electronic contribution:      0.00000      -0.00000       2.44112
Nuclear contribution   :     -0.00000       0.00000      -1.29413
                        -----------------------------------------
Total Dipole Moment    :      0.00000      -0.00000       1.14700
                        -----------------------------------------
Magnitude (a.u.)       :      1.14700
Magnitude (Debye)      :      2.91544

VIBRATIONAL FREQUENCIES
-----------------------

Scaling factor for frequencies =  1.000000000 (already applied!)

   0:         0.00 cm**-1
   1:         0.00 cm**-1
   2:         0.00 cm**-1
   3:         0.00 cm**-1
   4:         0.00 cm**-1
   5:       396.58 cm**-1
   6:       396.58 cm**-1
   7:       729.40 cm**-1
   8:      2228.00 cm**-1

IR SPECTRUM
-----------

 Mode    freq (cm**-1)   T**2         TX         TY         TZ
-------------------------------------------------------------------
   5:       396.58    1.742822  ( -0.590261  -1.180853  -0.000002)
   6:       396.58    1.742816  ( -1.180852   0.590259   0.000006)
   7:       729.40    9.581323  ( -0.000001   0.000001  -3.095371)
   8:      2228.00   41.102748  (  0.000000   0.000000   6.411143)

--------------------------
THERMOCHEMISTRY AT 298.15K
--------------------------

Temperature         ... 298.15 K
Pressure            ... 1.00 atm
Total Mass          ... 61.47 AMU
The molecule is recognized as being linear

Throughout the following assumptions are being made:
  (1) The electronic state is orbitally nondegenerate
  (2) There are no thermally accessible electronically excited states
  (3) Hindered rotations indicated by low frequency modes are not
      treated as such but are treated as vibrations and this may
      cause some error
  (4) All equations used are the standard statistical mechanics
      equations for an ideal gas
  (5) All vibrations are strictly harmonic

freq.     396.58  E(vib)   ...       0.20
freq.     396.58  E(vib)   ...       0.20
freq.     729.40  E(vib)   ...       0.06
freq.    2228.00  E(vib)   ...       0.00

------------
INNER ENERGY
------------

The inner energy is: U= E(el) + E(ZPE) + E(vib) + E(rot) + E(trans)
    E(el)   - is the total energy from the electronic structure calculation
              = E(kin-el) + E(nuc-el) + E(el-el) + E(nuc-nuc)
    E(ZPE)  - the the zero temperature vibrational energy from the frequency calculation
    E(vib)  - the the finite temperature correction to E(ZPE) due to population
              of excited vibrational states
    E(rot)  - is the rotational thermal energy
    E(trans)- is the translational thermal energy

Summary of contributions to the inner energy U:
Electronic energy                ...   -553.11242708 Eh
Zero point energy                ...      0.00854439 Eh       5.36 kcal/mol
Thermal vibrational correction   ...      0.00072705 Eh       0.46 kcal/mol
Thermal rotational correction    ...      0.00094418 Eh       0.59 kcal/mol
Thermal translational correction ...      0.00141627 Eh       0.89 kcal/mol
-----------------------------------------------------------------------
Total thermal energy                   -553.10079518 Eh

Summary of corrections to the electronic energy:
(perhaps to be used in another calculation)
Total thermal correction                  0.00308750 Eh       1.94 kcal/mol
Non-thermal (ZPE) correction              0.00854439 Eh       5.36 kcal/mol
-----------------------------------------------------------------------
Total correction                          0.01163189 Eh       7.30 kcal/mol

--------
ENTHALPY
--------

The enthalpy is H = U + kB*T
                kB is Boltzmann's constant
Total free energy                 ...   -553.10079518 Eh
Thermal Enthalpy correction       ...      0.00094421 Eh       0.59 kcal/mol
-----------------------------------------------------------------------
Total Enthalpy                    ...   -553.09985098 Eh

Note: Rotational entropy computed according to Herzberg
Infrared and Raman Spectra, Chapter V,1, Van Nostrand Reinhold, 1945
Point Group:  Cinfv, Symmetry Number:   1
Rotational constants in cm-1:     0.000000     0.197349     0.197349

Vibrational entropy computed according to the QRRHO of S. Grimme
Chem.Eur.J. 2012 18 9955

-------
ENTROPY
-------

The entropy contributions are T*S = T*(S(el)+S(vib)+S(rot)+S(trans))
     S(el)   - electronic entropy
     S(vib)  - vibrational entropy
     S(rot)  - rotational entropy
     S(trans)- translational entropy
The entropies will be listed as mutliplied by the temperature to get
units of energy

Electronic entropy                ...      0.00000000 Eh      0.00 kcal/mol
Vibrational entropy               ...      0.00105890 Eh      0.66 kcal/mol
Rotational entropy                ...      0.00751246 Eh      4.71 kcal/mol
Translational entropy             ...      0.01818208 Eh     11.41 kcal/mol
-----------------------------------------------------------------------
Final entropy term                ...      0.02675344 Eh     16.79 kcal/mol

In case the symmetry of your molecule has not been determined correctly
or in case you have a reason to use a different symmetry number we print
out the resulting rotational entropy values for sn=1,12 :
 --------------------------------------------------------
|  sn= 1 | S(rot)=      -0.00809922 Eh     -5.08 kcal/mol|
|  sn= 2 | S(rot)=      -0.00875368 Eh     -5.49 kcal/mol|
|  sn= 3 | S(rot)=      -0.00913651 Eh     -5.73 kcal/mol|
|  sn= 4 | S(rot)=      -0.00940814 Eh     -5.90 kcal/mol|
|  sn= 5 | S(rot)=      -0.00961882 Eh     -6.04 kcal/mol|
|  sn= 6 | S(rot)=      -0.00979097 Eh     -6.14 kcal/mol|
|  sn= 7 | S(rot)=      -0.00993651 Eh     -6.24 kcal/mol|
|  sn= 8 | S(rot)=      -0.01006259 Eh     -6.31 kcal/mol|
|  sn= 9 | S(rot)=      -0.01017380 Eh     -6.38 kcal/mol|
|  sn=10 | S(rot)=      -0.01027328 Eh     -6.45 kcal/mol|
|  sn=11 | S(rot)=      -0.01036327 Eh     -6.50 kcal/mol|
|  sn=12 | S(rot)=      -0.01044543 Eh     -6.55 kcal/mol|
 --------------------------------------------------------

-------------------
GIBBS FREE ENERGY
-------------------

The Gibbs free energy is G = H - T*S

Total enthalpy                    ...   -553.09985098 Eh
Total entropy correction          ...     -0.02675344 Eh    -16.79 kcal/mol
-----------------------------------------------------------------------
Final Gibbs free energy         ...   -553.12660442 Eh

For completeness - the Gibbs free energy minus the electronic energy
G-E(el)                           ...     -0.01417734 Eh     -8.90 kcal/mol

                             ****ORCA TERMINATED NORMALLY****
TOTAL RUN TIME: 0 days 0 hours 0 minutes 42 seconds 631 msec
