                         Program Version 4.2.0 -  RELEASE  -
|  1> #
|  2> # 09_ClF tpss/aug-cc-pvt(+d)z
|  3> #
|  4> ! tpss d3bj aug-cc-pvt(+d)z def2/j opt xyzfile numfreq
|  5>
|  6> *xyz 0 1
|  7> Cl           0.814871513         -0.000000011          0.000000056
|  8> F           -0.814871513          0.000000011         -0.000000056
|  9> *
| 10>
| 11> %pal
| 12> nprocs 24
| 13> end
| 14>
| 15>
| 16>                          ****END OF INPUT****
 Total Charge           Charge          ....    0
 Multiplicity           Mult            ....    1
 Number of Electrons    NEL             ....   26
Dispersion correction           -0.000498477
FINAL SINGLE POINT ENERGY      -560.053159036126
Dispersion correction            ... done
Dispersion correction           -0.000498369
FINAL SINGLE POINT ENERGY      -560.053357794893
Dispersion correction            ... done
Dispersion correction           -0.000498299
FINAL SINGLE POINT ENERGY      -560.053399108308
Dispersion correction            ... done
Dispersion correction           -0.000498295
FINAL SINGLE POINT ENERGY      -560.053399623809
Dispersion correction            ... done
                    ***********************HURRAY********************

CARTESIAN COORDINATES (ANGSTROEM)
---------------------------------
  Cl     0.825284   -0.000000    0.000000
  F     -0.825284    0.000000   -0.000000

 Multiplicity           Mult            ....    1
 Number of Electrons    NEL             ....   26
 Basis Dimension        Dim             ....  101

ORBITAL ENERGIES
----------------

  NO   OCC          E(Eh)            E(eV)
   0   2.0000    -101.108064     -2751.2903
   1   2.0000     -24.472309      -665.9254
   2   2.0000      -9.328680      -253.8463
   3   2.0000      -7.117836      -193.6862
   4   2.0000      -7.096824      -193.1144
   5   2.0000      -7.096824      -193.1144
   6   2.0000      -1.166669       -31.7467
   7   2.0000      -0.781267       -21.2594
   8   2.0000      -0.500336       -13.6148
   9   2.0000      -0.433755       -11.8031
  10   2.0000      -0.433755       -11.8031
  11   2.0000      -0.296210        -8.0603
  12   2.0000      -0.296210        -8.0603
  13   0.0000      -0.166175        -4.5218
  14   0.0000       0.024515         0.6671
  15   0.0000       0.054546         1.4843
  16   0.0000       0.054859         1.4928
  17   0.0000       0.054859         1.4928

MULLIKEN ATOMIC CHARGES
-----------------------
   0 Cl:    0.285004
   1 F :   -0.285004
Sum of atomic charges:    0.0000000

LOEWDIN ATOMIC CHARGES
----------------------
   0 Cl:    0.251264
   1 F :   -0.251264

  Mayer bond orders larger than 0.100000
B(  0-Cl,  1-F ) :   0.8222

Dispersion correction           -0.000498295
FINAL SINGLE POINT ENERGY      -560.053399618329

DIPOLE MOMENT
-------------
                                X             Y             Z
Electronic contribution:      0.09037      -0.00000       0.00000
Nuclear contribution   :      0.22277      -0.00000       0.00000
                        -----------------------------------------
Total Dipole Moment    :      0.31314      -0.00000       0.00000
                        -----------------------------------------
Magnitude (a.u.)       :      0.31314
Magnitude (Debye)      :      0.79594

VIBRATIONAL FREQUENCIES
-----------------------

Scaling factor for frequencies =  1.000000000 (already applied!)

   0:         0.00 cm**-1
   1:         0.00 cm**-1
   2:         0.00 cm**-1
   3:         0.00 cm**-1
   4:         0.00 cm**-1
   5:       766.67 cm**-1

IR SPECTRUM
-----------

 Mode    freq (cm**-1)   T**2         TX         TY         TZ
-------------------------------------------------------------------
   5:       766.67   25.842901  (  5.083591  -0.000001   0.000001)

--------------------------
THERMOCHEMISTRY AT 298.15K
--------------------------

Temperature         ... 298.15 K
Pressure            ... 1.00 atm
Total Mass          ... 54.45 AMU
The molecule is recognized as being linear

Throughout the following assumptions are being made:
  (1) The electronic state is orbitally nondegenerate
  (2) There are no thermally accessible electronically excited states
  (3) Hindered rotations indicated by low frequency modes are not
      treated as such but are treated as vibrations and this may
      cause some error
  (4) All equations used are the standard statistical mechanics
      equations for an ideal gas
  (5) All vibrations are strictly harmonic

freq.     766.67  E(vib)   ...       0.06

------------
INNER ENERGY
------------

The inner energy is: U= E(el) + E(ZPE) + E(vib) + E(rot) + E(trans)
    E(el)   - is the total energy from the electronic structure calculation
              = E(kin-el) + E(nuc-el) + E(el-el) + E(nuc-nuc)
    E(ZPE)  - the the zero temperature vibrational energy from the frequency calculation
    E(vib)  - the the finite temperature correction to E(ZPE) due to population
              of excited vibrational states
    E(rot)  - is the rotational thermal energy
    E(trans)- is the translational thermal energy

Summary of contributions to the inner energy U:
Electronic energy                ...   -560.05339962 Eh
Zero point energy                ...      0.00174659 Eh       1.10 kcal/mol
Thermal vibrational correction   ...      0.00008859 Eh       0.06 kcal/mol
Thermal rotational correction    ...      0.00094418 Eh       0.59 kcal/mol
Thermal translational correction ...      0.00141627 Eh       0.89 kcal/mol
-----------------------------------------------------------------------
Total thermal energy                   -560.04920398 Eh

Summary of corrections to the electronic energy:
(perhaps to be used in another calculation)
Total thermal correction                  0.00244904 Eh       1.54 kcal/mol
Non-thermal (ZPE) correction              0.00174659 Eh       1.10 kcal/mol
-----------------------------------------------------------------------
Total correction                          0.00419563 Eh       2.63 kcal/mol

--------
ENTHALPY
--------

The enthalpy is H = U + kB*T
                kB is Boltzmann's constant
Total free energy                 ...   -560.04920398 Eh
Thermal Enthalpy correction       ...      0.00094421 Eh       0.59 kcal/mol
-----------------------------------------------------------------------
Total Enthalpy                    ...   -560.04825977 Eh

Note: Rotational entropy computed according to Herzberg
Infrared and Raman Spectra, Chapter V,1, Van Nostrand Reinhold, 1945
Point Group:  Cinfv, Symmetry Number:   1
Rotational constants in cm-1:     0.000000     0.500236     0.500236

Vibrational entropy computed according to the QRRHO of S. Grimme
Chem.Eur.J. 2012 18 9955

-------
ENTROPY
-------

The entropy contributions are T*S = T*(S(el)+S(vib)+S(rot)+S(trans))
     S(el)   - electronic entropy
     S(vib)  - vibrational entropy
     S(rot)  - rotational entropy
     S(trans)- translational entropy
The entropies will be listed as mutliplied by the temperature to get
units of energy

Electronic entropy                ...      0.00000000 Eh      0.00 kcal/mol
Vibrational entropy               ...      0.00011232 Eh      0.07 kcal/mol
Rotational entropy                ...      0.00663427 Eh      4.16 kcal/mol
Translational entropy             ...      0.01801033 Eh     11.30 kcal/mol
-----------------------------------------------------------------------
Final entropy term                ...      0.02475692 Eh     15.54 kcal/mol

In case the symmetry of your molecule has not been determined correctly
or in case you have a reason to use a different symmetry number we print
out the resulting rotational entropy values for sn=1,12 :
 --------------------------------------------------------
|  sn= 1 | S(rot)=             -nan Eh      -nan kcal/mol|
|  sn= 2 | S(rot)=             -nan Eh      -nan kcal/mol|
|  sn= 3 | S(rot)=             -nan Eh      -nan kcal/mol|
|  sn= 4 | S(rot)=             -nan Eh      -nan kcal/mol|
|  sn= 5 | S(rot)=             -nan Eh      -nan kcal/mol|
|  sn= 6 | S(rot)=             -nan Eh      -nan kcal/mol|
|  sn= 7 | S(rot)=             -nan Eh      -nan kcal/mol|
|  sn= 8 | S(rot)=             -nan Eh      -nan kcal/mol|
|  sn= 9 | S(rot)=             -nan Eh      -nan kcal/mol|
|  sn=10 | S(rot)=             -nan Eh      -nan kcal/mol|
|  sn=11 | S(rot)=             -nan Eh      -nan kcal/mol|
|  sn=12 | S(rot)=             -nan Eh      -nan kcal/mol|
 --------------------------------------------------------

-------------------
GIBBS FREE ENERGY
-------------------

The Gibbs free energy is G = H - T*S

Total enthalpy                    ...   -560.04825977 Eh
Total entropy correction          ...     -0.02475692 Eh    -15.54 kcal/mol
-----------------------------------------------------------------------
Final Gibbs free energy         ...   -560.07301670 Eh

For completeness - the Gibbs free energy minus the electronic energy
G-E(el)                           ...     -0.01961708 Eh    -12.31 kcal/mol

                             ****ORCA TERMINATED NORMALLY****
TOTAL RUN TIME: 0 days 0 hours 0 minutes 24 seconds 88 msec
