                         Program Version 4.2.0 -  RELEASE  -
|  1> #
|  2> # 10_CO2 tpss/aug-cc-pvt(+d)z
|  3> #
|  4> ! tpss d3bj aug-cc-pvt(+d)z def2/j opt xyzfile numfreq
|  5>
|  6> *xyz 0 1
|  7> O           -1.161057866         -0.000000006         -0.000000007
|  8> O            1.161057864          0.000000007          0.000000007
|  9> C            0.000000003         -0.000000000         -0.000000000
| 10> *
| 11>
| 12> %pal
| 13> nprocs 24
| 14> end
| 15>
| 16>
| 17>                          ****END OF INPUT****
 Total Charge           Charge          ....    0
 Multiplicity           Mult            ....    1
 Number of Electrons    NEL             ....   22
Dispersion correction           -0.001154176
FINAL SINGLE POINT ENERGY      -188.689108018572
Dispersion correction            ... done
Dispersion correction           -0.001153322
FINAL SINGLE POINT ENERGY      -188.689405849234
Dispersion correction            ... done
Dispersion correction           -0.001153164
FINAL SINGLE POINT ENERGY      -188.689409249519
Dispersion correction            ... done
                    ***********************HURRAY********************

CARTESIAN COORDINATES (ANGSTROEM)
---------------------------------
  O     -1.170341   -0.000000   -0.000000
  O      1.170341    0.000000    0.000000
  C     -0.000000    0.000000   -0.000000

 Multiplicity           Mult            ....    1
 Number of Electrons    NEL             ....   22
 Basis Dimension        Dim             ....  138

ORBITAL ENERGIES
----------------

  NO   OCC          E(Eh)            E(eV)
   0   2.0000     -18.969137      -516.1765
   1   2.0000     -18.969115      -516.1759
   2   2.0000     -10.168842      -276.7083
   3   2.0000      -1.089549       -29.6481
   4   2.0000      -1.050551       -28.5869
   5   2.0000      -0.518395       -14.1063
   6   2.0000      -0.471781       -12.8378
   7   2.0000      -0.469107       -12.7650
   8   2.0000      -0.469107       -12.7650
   9   2.0000      -0.336028        -9.1438
  10   2.0000      -0.336028        -9.1438
  11   0.0000      -0.027363        -0.7446
  12   0.0000      -0.010510        -0.2860
  13   0.0000      -0.010510        -0.2860
  14   0.0000       0.039114         1.0643
  15   0.0000       0.039114         1.0643

MULLIKEN ATOMIC CHARGES
-----------------------
   0 O :   -0.174449
   1 O :   -0.174449
   2 C :    0.348899
Sum of atomic charges:   -0.0000000

LOEWDIN ATOMIC CHARGES
----------------------
   0 O :    0.366298
   1 O :    0.366298
   2 C :   -0.732596

  Mayer bond orders larger than 0.100000
B(  0-O ,  1-O ) :   0.1420 B(  0-O ,  2-C ) :   1.9642 B(  1-O ,  2-C ) :   1.9642

Dispersion correction           -0.001153159
FINAL SINGLE POINT ENERGY      -188.689409100429

DIPOLE MOMENT
-------------
                                X             Y             Z
Electronic contribution:     -0.00000       0.00000      -0.00000
Nuclear contribution   :      0.00000      -0.00000       0.00000
                        -----------------------------------------
Total Dipole Moment    :     -0.00000       0.00000      -0.00000
                        -----------------------------------------
Magnitude (a.u.)       :      0.00000
Magnitude (Debye)      :      0.00000

VIBRATIONAL FREQUENCIES
-----------------------

Scaling factor for frequencies =  1.000000000 (already applied!)

   0:         0.00 cm**-1
   1:         0.00 cm**-1
   2:         0.00 cm**-1
   3:         0.00 cm**-1
   4:         0.00 cm**-1
   5:       648.75 cm**-1
   6:       648.76 cm**-1
   7:      1321.94 cm**-1
   8:      2347.70 cm**-1

IR SPECTRUM
-----------

 Mode    freq (cm**-1)   T**2         TX         TY         TZ
-------------------------------------------------------------------
   5:       648.75   21.973033  (  0.000003  -1.646522  -4.388849)
   6:       648.76   21.972956  ( -0.000001   4.388844  -1.646513)
   7:      1321.94    0.000000  ( -0.000002  -0.000002  -0.000001)
   8:      2347.70  561.179375  (-23.689225   0.000001  -0.000002)

--------------------------
THERMOCHEMISTRY AT 298.15K
--------------------------

Temperature         ... 298.15 K
Pressure            ... 1.00 atm
Total Mass          ... 44.01 AMU
The molecule is recognized as being linear

Throughout the following assumptions are being made:
  (1) The electronic state is orbitally nondegenerate
  (2) There are no thermally accessible electronically excited states
  (3) Hindered rotations indicated by low frequency modes are not
      treated as such but are treated as vibrations and this may
      cause some error
  (4) All equations used are the standard statistical mechanics
      equations for an ideal gas
  (5) All vibrations are strictly harmonic

freq.     648.75  E(vib)   ...       0.08
freq.     648.76  E(vib)   ...       0.08
freq.    1321.94  E(vib)   ...       0.01
freq.    2347.70  E(vib)   ...       0.00

------------
INNER ENERGY
------------

The inner energy is: U= E(el) + E(ZPE) + E(vib) + E(rot) + E(trans)
    E(el)   - is the total energy from the electronic structure calculation
              = E(kin-el) + E(nuc-el) + E(el-el) + E(nuc-nuc)
    E(ZPE)  - the the zero temperature vibrational energy from the frequency calculation
    E(vib)  - the the finite temperature correction to E(ZPE) due to population
              of excited vibrational states
    E(rot)  - is the rotational thermal energy
    E(trans)- is the translational thermal energy

Summary of contributions to the inner energy U:
Electronic energy                ...   -188.68940910 Eh
Zero point energy                ...      0.01131601 Eh       7.10 kcal/mol
Thermal vibrational correction   ...      0.00028046 Eh       0.18 kcal/mol
Thermal rotational correction    ...      0.00094418 Eh       0.59 kcal/mol
Thermal translational correction ...      0.00141627 Eh       0.89 kcal/mol
-----------------------------------------------------------------------
Total thermal energy                   -188.67545218 Eh

Summary of corrections to the electronic energy:
(perhaps to be used in another calculation)
Total thermal correction                  0.00264092 Eh       1.66 kcal/mol
Non-thermal (ZPE) correction              0.01131601 Eh       7.10 kcal/mol
-----------------------------------------------------------------------
Total correction                          0.01395692 Eh       8.76 kcal/mol

--------
ENTHALPY
--------

The enthalpy is H = U + kB*T
                kB is Boltzmann's constant
Total free energy                 ...   -188.67545218 Eh
Thermal Enthalpy correction       ...      0.00094421 Eh       0.59 kcal/mol
-----------------------------------------------------------------------
Total Enthalpy                    ...   -188.67450797 Eh

Note: Rotational entropy computed according to Herzberg
Infrared and Raman Spectra, Chapter V,1, Van Nostrand Reinhold, 1945
Point Group:  Dinfh, Symmetry Number:   2
Rotational constants in cm-1:     0.000000     0.384636     0.384636

Vibrational entropy computed according to the QRRHO of S. Grimme
Chem.Eur.J. 2012 18 9955

-------
ENTROPY
-------

The entropy contributions are T*S = T*(S(el)+S(vib)+S(rot)+S(trans))
     S(el)   - electronic entropy
     S(vib)  - vibrational entropy
     S(rot)  - rotational entropy
     S(trans)- translational entropy
The entropies will be listed as mutliplied by the temperature to get
units of energy

Electronic entropy                ...      0.00000000 Eh      0.00 kcal/mol
Vibrational entropy               ...      0.00036677 Eh      0.23 kcal/mol
Rotational entropy                ...      0.00622793 Eh      3.91 kcal/mol
Translational entropy             ...      0.01770880 Eh     11.11 kcal/mol
-----------------------------------------------------------------------
Final entropy term                ...      0.02430350 Eh     15.25 kcal/mol

In case the symmetry of your molecule has not been determined correctly
or in case you have a reason to use a different symmetry number we print
out the resulting rotational entropy values for sn=1,12 :
 --------------------------------------------------------
|  sn= 1 | S(rot)=             -nan Eh      -nan kcal/mol|
|  sn= 2 | S(rot)=             -nan Eh      -nan kcal/mol|
|  sn= 3 | S(rot)=             -nan Eh      -nan kcal/mol|
|  sn= 4 | S(rot)=             -nan Eh      -nan kcal/mol|
|  sn= 5 | S(rot)=             -nan Eh      -nan kcal/mol|
|  sn= 6 | S(rot)=             -nan Eh      -nan kcal/mol|
|  sn= 7 | S(rot)=             -nan Eh      -nan kcal/mol|
|  sn= 8 | S(rot)=             -nan Eh      -nan kcal/mol|
|  sn= 9 | S(rot)=             -nan Eh      -nan kcal/mol|
|  sn=10 | S(rot)=             -nan Eh      -nan kcal/mol|
|  sn=11 | S(rot)=             -nan Eh      -nan kcal/mol|
|  sn=12 | S(rot)=             -nan Eh      -nan kcal/mol|
 --------------------------------------------------------

-------------------
GIBBS FREE ENERGY
-------------------

The Gibbs free energy is G = H - T*S

Total enthalpy                    ...   -188.67450797 Eh
Total entropy correction          ...     -0.02430350 Eh    -15.25 kcal/mol
-----------------------------------------------------------------------
Final Gibbs free energy         ...   -188.69881147 Eh

For completeness - the Gibbs free energy minus the electronic energy
G-E(el)                           ...     -0.00940237 Eh     -5.90 kcal/mol

                             ****ORCA TERMINATED NORMALLY****
TOTAL RUN TIME: 0 days 0 hours 0 minutes 25 seconds 310 msec
