                         Program Version 4.2.0 -  RELEASE  -
|  1> #
|  2> # 11_CO tpss/aug-cc-pvt(+d)z
|  3> #
|  4> ! tpss d3bj aug-cc-pvt(+d)z def2/j opt xyzfile numfreq
|  5>
|  6> *xyz 0 1
|  7> O            0.563546865          0.000000013          0.000000013
|  8> C           -0.563546865         -0.000000013         -0.000000013
|  9> *
| 10>
| 11> %pal
| 12> nprocs 24
| 13> end
| 14>
| 15>
| 16>                          ****END OF INPUT****
 Total Charge           Charge          ....    0
 Multiplicity           Mult            ....    1
 Number of Electrons    NEL             ....   14
Dispersion correction           -0.000505722
FINAL SINGLE POINT ENERGY      -113.371335391085
Dispersion correction            ... done
Dispersion correction           -0.000505711
FINAL SINGLE POINT ENERGY      -113.371483530445
Dispersion correction            ... done
Dispersion correction           -0.000505709
FINAL SINGLE POINT ENERGY      -113.371487668579
Dispersion correction            ... done
                    ***********************HURRAY********************

CARTESIAN COORDINATES (ANGSTROEM)
---------------------------------
  O      0.567803    0.000000    0.000000
  C     -0.567803   -0.000000   -0.000000

 Multiplicity           Mult            ....    1
 Number of Electrons    NEL             ....   14
 Basis Dimension        Dim             ....   92

ORBITAL ENERGIES
----------------

  NO   OCC          E(Eh)            E(eV)
   0   2.0000     -18.992360      -516.8084
   1   2.0000     -10.105231      -274.9773
   2   2.0000      -1.093157       -29.7463
   3   2.0000      -0.527998       -14.3676
   4   2.0000      -0.434409       -11.8209
   5   2.0000      -0.434409       -11.8209
   6   2.0000      -0.340952        -9.2778
   7   0.0000      -0.069641        -1.8950
   8   0.0000      -0.069641        -1.8950
   9   0.0000       0.019248         0.5238
  10   0.0000       0.044381         1.2077
  11   0.0000       0.050126         1.3640

MULLIKEN ATOMIC CHARGES
-----------------------
   0 O :   -0.101687
   1 C :    0.101687
Sum of atomic charges:    0.0000000

LOEWDIN ATOMIC CHARGES
----------------------
   0 O :    0.180500
   1 C :   -0.180500

  Mayer bond orders larger than 0.100000
B(  0-O ,  1-C ) :   2.4720

Dispersion correction           -0.000505709
FINAL SINGLE POINT ENERGY      -113.371487661437

DIPOLE MOMENT
-------------
                                X             Y             Z
Electronic contribution:      0.05835      -0.00000      -0.00000
Nuclear contribution   :      0.00720       0.00000       0.00000
                        -----------------------------------------
Total Dipole Moment    :      0.06555      -0.00000      -0.00000
                        -----------------------------------------
Magnitude (a.u.)       :      0.06555
Magnitude (Debye)      :      0.16663

VIBRATIONAL FREQUENCIES
-----------------------

Scaling factor for frequencies =  1.000000000 (already applied!)

   0:         0.00 cm**-1
   1:         0.00 cm**-1
   2:         0.00 cm**-1
   3:         0.00 cm**-1
   4:         0.00 cm**-1
   5:      2129.72 cm**-1

IR SPECTRUM
-----------

 Mode    freq (cm**-1)   T**2         TX         TY         TZ
-------------------------------------------------------------------
   5:      2129.72   68.977729  ( -8.305283  -0.000000  -0.000000)

--------------------------
THERMOCHEMISTRY AT 298.15K
--------------------------

Temperature         ... 298.15 K
Pressure            ... 1.00 atm
Total Mass          ... 28.01 AMU
The molecule is recognized as being linear

Throughout the following assumptions are being made:
  (1) The electronic state is orbitally nondegenerate
  (2) There are no thermally accessible electronically excited states
  (3) Hindered rotations indicated by low frequency modes are not
      treated as such but are treated as vibrations and this may
      cause some error
  (4) All equations used are the standard statistical mechanics
      equations for an ideal gas
  (5) All vibrations are strictly harmonic

freq.    2129.72  E(vib)   ...       0.00

------------
INNER ENERGY
------------

The inner energy is: U= E(el) + E(ZPE) + E(vib) + E(rot) + E(trans)
    E(el)   - is the total energy from the electronic structure calculation
              = E(kin-el) + E(nuc-el) + E(el-el) + E(nuc-nuc)
    E(ZPE)  - the the zero temperature vibrational energy from the frequency calculation
    E(vib)  - the the finite temperature correction to E(ZPE) due to population
              of excited vibrational states
    E(rot)  - is the rotational thermal energy
    E(trans)- is the translational thermal energy

Summary of contributions to the inner energy U:
Electronic energy                ...   -113.37148765 Eh
Zero point energy                ...      0.00485187 Eh       3.04 kcal/mol
Thermal vibrational correction   ...      0.00000033 Eh       0.00 kcal/mol
Thermal rotational correction    ...      0.00094418 Eh       0.59 kcal/mol
Thermal translational correction ...      0.00141627 Eh       0.89 kcal/mol
-----------------------------------------------------------------------
Total thermal energy                   -113.36427500 Eh

Summary of corrections to the electronic energy:
(perhaps to be used in another calculation)
Total thermal correction                  0.00236079 Eh       1.48 kcal/mol
Non-thermal (ZPE) correction              0.00485187 Eh       3.04 kcal/mol
-----------------------------------------------------------------------
Total correction                          0.00721265 Eh       4.53 kcal/mol

--------
ENTHALPY
--------

The enthalpy is H = U + kB*T
                kB is Boltzmann's constant
Total free energy                 ...   -113.36427500 Eh
Thermal Enthalpy correction       ...      0.00094421 Eh       0.59 kcal/mol
-----------------------------------------------------------------------
Total Enthalpy                    ...   -113.36333079 Eh

Note: Rotational entropy computed according to Herzberg
Infrared and Raman Spectra, Chapter V,1, Van Nostrand Reinhold, 1945
Point Group:  Cinfv, Symmetry Number:   1
Rotational constants in cm-1:     0.000000     1.905387     1.905387

Vibrational entropy computed according to the QRRHO of S. Grimme
Chem.Eur.J. 2012 18 9955

-------
ENTROPY
-------

The entropy contributions are T*S = T*(S(el)+S(vib)+S(rot)+S(trans))
     S(el)   - electronic entropy
     S(vib)  - vibrational entropy
     S(rot)  - rotational entropy
     S(trans)- translational entropy
The entropies will be listed as mutliplied by the temperature to get
units of energy

Electronic entropy                ...      0.00000000 Eh      0.00 kcal/mol
Vibrational entropy               ...      0.00000037 Eh      0.00 kcal/mol
Rotational entropy                ...      0.00537156 Eh      3.37 kcal/mol
Translational entropy             ...      0.01706888 Eh     10.71 kcal/mol
-----------------------------------------------------------------------
Final entropy term                ...      0.02244081 Eh     14.08 kcal/mol

In case the symmetry of your molecule has not been determined correctly
or in case you have a reason to use a different symmetry number we print
out the resulting rotational entropy values for sn=1,12 :
 --------------------------------------------------------
|  sn= 1 | S(rot)=             -nan Eh      -nan kcal/mol|
|  sn= 2 | S(rot)=             -nan Eh      -nan kcal/mol|
|  sn= 3 | S(rot)=             -nan Eh      -nan kcal/mol|
|  sn= 4 | S(rot)=             -nan Eh      -nan kcal/mol|
|  sn= 5 | S(rot)=             -nan Eh      -nan kcal/mol|
|  sn= 6 | S(rot)=             -nan Eh      -nan kcal/mol|
|  sn= 7 | S(rot)=             -nan Eh      -nan kcal/mol|
|  sn= 8 | S(rot)=             -nan Eh      -nan kcal/mol|
|  sn= 9 | S(rot)=             -nan Eh      -nan kcal/mol|
|  sn=10 | S(rot)=             -nan Eh      -nan kcal/mol|
|  sn=11 | S(rot)=             -nan Eh      -nan kcal/mol|
|  sn=12 | S(rot)=             -nan Eh      -nan kcal/mol|
 --------------------------------------------------------

-------------------
GIBBS FREE ENERGY
-------------------

The Gibbs free energy is G = H - T*S

Total enthalpy                    ...   -113.36333079 Eh
Total entropy correction          ...     -0.02244081 Eh    -14.08 kcal/mol
-----------------------------------------------------------------------
Final Gibbs free energy         ...   -113.38577160 Eh

For completeness - the Gibbs free energy minus the electronic energy
G-E(el)                           ...     -0.01428395 Eh     -8.96 kcal/mol

                             ****ORCA TERMINATED NORMALLY****
TOTAL RUN TIME: 0 days 0 hours 0 minutes 19 seconds 509 msec
