                         Program Version 4.2.0 -  RELEASE  -
|  1> #
|  2> # 12_CS2 tpss/aug-cc-pvt(+d)z
|  3> #
|  4> ! tpss d3bj aug-cc-pvt(+d)z def2/j opt xyzfile numfreq
|  5>
|  6> *xyz 0 1
|  7> S           0.000000000         0.000000000          1.550022582
|  8> C           0.000000000         0.000000000          0.000000099
|  9> S           0.000000000         0.000000000         -1.550022427
| 10> *
| 11>
| 12> %pal
| 13> nprocs 24
| 14> end
| 15>
| 16>
| 17>                          ****END OF INPUT****
 Total Charge           Charge          ....    0
 Multiplicity           Mult            ....    1
 Number of Electrons    NEL             ....   38
Dispersion correction           -0.003514633
FINAL SINGLE POINT ENERGY      -834.607273667926
Dispersion correction            ... done
Dispersion correction           -0.003509789
FINAL SINGLE POINT ENERGY      -834.607420121093
Dispersion correction            ... done
Dispersion correction           -0.003506355
FINAL SINGLE POINT ENERGY      -834.607448393987
Dispersion correction            ... done
                    ***********************HURRAY********************

CARTESIAN COORDINATES (ANGSTROEM)
---------------------------------
  S     -0.000000    0.000000    1.559710
  C      0.000000   -0.000000    0.000000
  S     -0.000000    0.000000   -1.559710

 Multiplicity           Mult            ....    1
 Number of Electrons    NEL             ....   38
 Basis Dimension        Dim             ....  156

ORBITAL ENERGIES
----------------

  NO   OCC          E(Eh)            E(eV)
   0   2.0000     -88.420529     -2406.0449
   1   2.0000     -88.420528     -2406.0449
   2   2.0000     -10.107894      -275.0498
   3   2.0000      -7.776892      -211.6200
   4   2.0000      -7.776890      -211.6199
   5   2.0000      -5.757403      -156.6669
   6   2.0000      -5.757402      -156.6669
   7   2.0000      -5.753042      -156.5482
   8   2.0000      -5.753042      -156.5482
   9   2.0000      -5.753040      -156.5482
  10   2.0000      -5.753040      -156.5482
  11   2.0000      -0.798497       -21.7282
  12   2.0000      -0.713962       -19.4279
  13   2.0000      -0.473487       -12.8842
  14   2.0000      -0.395267       -10.7558
  15   2.0000      -0.356311        -9.6957
  16   2.0000      -0.356311        -9.6957
  17   2.0000      -0.253205        -6.8901
  18   2.0000      -0.253205        -6.8901
  19   0.0000      -0.103656        -2.8206
  20   0.0000      -0.103656        -2.8206
  21   0.0000      -0.008020        -0.2182
  22   0.0000       0.006177         0.1681
  23   0.0000       0.016954         0.4614

MULLIKEN ATOMIC CHARGES
-----------------------
   0 S :   -0.032965
   1 C :    0.065930
   2 S :   -0.032965
Sum of atomic charges:   -0.0000000

LOEWDIN ATOMIC CHARGES
----------------------
   0 S :    0.793552
   1 C :   -1.587105
   2 S :    0.793552

  Mayer bond orders larger than 0.100000
B(  0-S ,  1-C ) :   1.5950 B(  0-S ,  2-S ) :   0.4283 B(  1-C ,  2-S ) :   1.5950

Dispersion correction           -0.003506263
FINAL SINGLE POINT ENERGY      -834.607448350667

DIPOLE MOMENT
-------------
                                X             Y             Z
Electronic contribution:     -0.00000       0.00000      -0.00000
Nuclear contribution   :      0.00000      -0.00000      -0.00000
                        -----------------------------------------
Total Dipole Moment    :     -0.00000       0.00000      -0.00000
                        -----------------------------------------
Magnitude (a.u.)       :      0.00000
Magnitude (Debye)      :      0.00000

VIBRATIONAL FREQUENCIES
-----------------------

Scaling factor for frequencies =  1.000000000 (already applied!)

   0:         0.00 cm**-1
   1:         0.00 cm**-1
   2:         0.00 cm**-1
   3:         0.00 cm**-1
   4:         0.00 cm**-1
   5:       400.60 cm**-1
   6:       400.61 cm**-1
   7:       661.67 cm**-1
   8:      1541.95 cm**-1

IR SPECTRUM
-----------

 Mode    freq (cm**-1)   T**2         TX         TY         TZ
-------------------------------------------------------------------
   5:       400.60    6.772374  (  1.851795  -1.828450  -0.000001)
   6:       400.61    6.772419  ( -1.828458  -1.851799  -0.000009)
   7:       661.67    0.000000  ( -0.000001  -0.000003  -0.000003)
   8:      1541.95  554.337542  ( -0.000001  -0.000000  23.544374)

--------------------------
THERMOCHEMISTRY AT 298.15K
--------------------------

Temperature         ... 298.15 K
Pressure            ... 1.00 atm
Total Mass          ... 76.13 AMU
The molecule is recognized as being linear

Throughout the following assumptions are being made:
  (1) The electronic state is orbitally nondegenerate
  (2) There are no thermally accessible electronically excited states
  (3) Hindered rotations indicated by low frequency modes are not
      treated as such but are treated as vibrations and this may
      cause some error
  (4) All equations used are the standard statistical mechanics
      equations for an ideal gas
  (5) All vibrations are strictly harmonic

freq.     400.60  E(vib)   ...       0.19
freq.     400.61  E(vib)   ...       0.19
freq.     661.67  E(vib)   ...       0.08
freq.    1541.95  E(vib)   ...       0.00

------------
INNER ENERGY
------------

The inner energy is: U= E(el) + E(ZPE) + E(vib) + E(rot) + E(trans)
    E(el)   - is the total energy from the electronic structure calculation
              = E(kin-el) + E(nuc-el) + E(el-el) + E(nuc-nuc)
    E(ZPE)  - the the zero temperature vibrational energy from the frequency calculation
    E(vib)  - the the finite temperature correction to E(ZPE) due to population
              of excited vibrational states
    E(rot)  - is the rotational thermal energy
    E(trans)- is the translational thermal energy

Summary of contributions to the inner energy U:
Electronic energy                ...   -834.60744833 Eh
Zero point energy                ...      0.00684551 Eh       4.30 kcal/mol
Thermal vibrational correction   ...      0.00075076 Eh       0.47 kcal/mol
Thermal rotational correction    ...      0.00094418 Eh       0.59 kcal/mol
Thermal translational correction ...      0.00141627 Eh       0.89 kcal/mol
-----------------------------------------------------------------------
Total thermal energy                   -834.59749161 Eh

Summary of corrections to the electronic energy:
(perhaps to be used in another calculation)
Total thermal correction                  0.00311121 Eh       1.95 kcal/mol
Non-thermal (ZPE) correction              0.00684551 Eh       4.30 kcal/mol
-----------------------------------------------------------------------
Total correction                          0.00995672 Eh       6.25 kcal/mol

--------
ENTHALPY
--------

The enthalpy is H = U + kB*T
                kB is Boltzmann's constant
Total free energy                 ...   -834.59749161 Eh
Thermal Enthalpy correction       ...      0.00094421 Eh       0.59 kcal/mol
-----------------------------------------------------------------------
Total Enthalpy                    ...   -834.59654740 Eh

Note: Rotational entropy computed according to Herzberg
Infrared and Raman Spectra, Chapter V,1, Van Nostrand Reinhold, 1945
Point Group:  Dinfh, Symmetry Number:   2
Rotational constants in cm-1:     0.000000     0.108073     0.108073

Vibrational entropy computed according to the QRRHO of S. Grimme
Chem.Eur.J. 2012 18 9955

-------
ENTROPY
-------

The entropy contributions are T*S = T*(S(el)+S(vib)+S(rot)+S(trans))
     S(el)   - electronic entropy
     S(vib)  - vibrational entropy
     S(rot)  - rotational entropy
     S(trans)- translational entropy
The entropies will be listed as mutliplied by the temperature to get
units of energy

Electronic entropy                ...      0.00000000 Eh      0.00 kcal/mol
Vibrational entropy               ...      0.00108806 Eh      0.68 kcal/mol
Rotational entropy                ...      0.00742656 Eh      4.66 kcal/mol
Translational entropy             ...      0.01848500 Eh     11.60 kcal/mol
-----------------------------------------------------------------------
Final entropy term                ...      0.02699963 Eh     16.94 kcal/mol

In case the symmetry of your molecule has not been determined correctly
or in case you have a reason to use a different symmetry number we print
out the resulting rotational entropy values for sn=1,12 :
 --------------------------------------------------------
|  sn= 1 | S(rot)=      -0.00449555 Eh     -2.82 kcal/mol|
|  sn= 2 | S(rot)=      -0.00515000 Eh     -3.23 kcal/mol|
|  sn= 3 | S(rot)=      -0.00553284 Eh     -3.47 kcal/mol|
|  sn= 4 | S(rot)=      -0.00580446 Eh     -3.64 kcal/mol|
|  sn= 5 | S(rot)=      -0.00601515 Eh     -3.77 kcal/mol|
|  sn= 6 | S(rot)=      -0.00618729 Eh     -3.88 kcal/mol|
|  sn= 7 | S(rot)=      -0.00633284 Eh     -3.97 kcal/mol|
|  sn= 8 | S(rot)=      -0.00645892 Eh     -4.05 kcal/mol|
|  sn= 9 | S(rot)=      -0.00657013 Eh     -4.12 kcal/mol|
|  sn=10 | S(rot)=      -0.00666960 Eh     -4.19 kcal/mol|
|  sn=11 | S(rot)=      -0.00675959 Eh     -4.24 kcal/mol|
|  sn=12 | S(rot)=      -0.00684175 Eh     -4.29 kcal/mol|
 --------------------------------------------------------

-------------------
GIBBS FREE ENERGY
-------------------

The Gibbs free energy is G = H - T*S

Total enthalpy                    ...   -834.59654740 Eh
Total entropy correction          ...     -0.02699963 Eh    -16.94 kcal/mol
-----------------------------------------------------------------------
Final Gibbs free energy         ...   -834.62354703 Eh

For completeness - the Gibbs free energy minus the electronic energy
G-E(el)                           ...     -0.01609870 Eh    -10.10 kcal/mol

                             ****ORCA TERMINATED NORMALLY****
TOTAL RUN TIME: 0 days 0 hours 0 minutes 33 seconds 310 msec
