                         Program Version 4.2.0 -  RELEASE  -
|  1> #
|  2> # 13_CS tpss/aug-cc-pvt(+d)z
|  3> #
|  4> ! tpss d3bj aug-cc-pvt(+d)z def2/j opt xyzfile numfreq
|  5>
|  6> *xyz 0 1
|  7> C           -0.000000200         -0.000000107          0.006732513
|  8> S            0.000000200          0.000000107          1.532967485
|  9> *
| 10>
| 11> %pal
| 12> nprocs 24
| 13> end
| 14>
| 15>
| 16>                          ****END OF INPUT****
 Total Charge           Charge          ....    0
 Multiplicity           Mult            ....    1
 Number of Electrons    NEL             ....   22
Dispersion correction           -0.001224285
FINAL SINGLE POINT ENERGY      -436.277951204738
Dispersion correction            ... done
Dispersion correction           -0.001224188
FINAL SINGLE POINT ENERGY      -436.278187093669
Dispersion correction            ... done
Dispersion correction           -0.001224108
FINAL SINGLE POINT ENERGY      -436.278247792678
Dispersion correction            ... done
Dispersion correction           -0.001224104
FINAL SINGLE POINT ENERGY      -436.278247921004
Dispersion correction            ... done
                    ***********************HURRAY********************

CARTESIAN COORDINATES (ANGSTROEM)
---------------------------------
  C     -0.000000   -0.000000   -0.001950
  S      0.000000    0.000000    1.541650

 Multiplicity           Mult            ....    1
 Number of Electrons    NEL             ....   22
 Basis Dimension        Dim             ....  101

ORBITAL ENERGIES
----------------

  NO   OCC          E(Eh)            E(eV)
   0   2.0000     -88.437547     -2406.5080
   1   2.0000     -10.089164      -274.5401
   2   2.0000      -7.796729      -212.1598
   3   2.0000      -5.774928      -157.1438
   4   2.0000      -5.774928      -157.1438
   5   2.0000      -5.772589      -157.0801
   6   2.0000      -0.777887       -21.1674
   7   2.0000      -0.487837       -13.2747
   8   2.0000      -0.328831        -8.9479
   9   2.0000      -0.328831        -8.9479
  10   2.0000      -0.279408        -7.6031
  11   0.0000      -0.122447        -3.3320
  12   0.0000      -0.122447        -3.3320
  13   0.0000       0.007197         0.1958
  14   0.0000       0.015175         0.4129
  15   0.0000       0.039675         1.0796

MULLIKEN ATOMIC CHARGES
-----------------------
   0 C :   -0.421799
   1 S :    0.421799
Sum of atomic charges:   -0.0000000

LOEWDIN ATOMIC CHARGES
----------------------
   0 C :   -0.661572
   1 S :    0.661572

  Mayer bond orders larger than 0.100000
B(  0-C ,  1-S ) :   2.2377

Dispersion correction           -0.001224104
FINAL SINGLE POINT ENERGY      -436.278247921943

DIPOLE MOMENT
-------------
                                X             Y             Z
Electronic contribution:      0.00000       0.00000       0.75575
Nuclear contribution   :     -0.00000      -0.00000      -0.01218
                        -----------------------------------------
Total Dipole Moment    :      0.00000       0.00000       0.74358
                        -----------------------------------------
Magnitude (a.u.)       :      0.74358
Magnitude (Debye)      :      1.89002

VIBRATIONAL FREQUENCIES
-----------------------

Scaling factor for frequencies =  1.000000000 (already applied!)

   0:         0.00 cm**-1
   1:         0.00 cm**-1
   2:         0.00 cm**-1
   3:         0.00 cm**-1
   4:         0.00 cm**-1
   5:      1265.25 cm**-1

IR SPECTRUM
-----------

 Mode    freq (cm**-1)   T**2         TX         TY         TZ
-------------------------------------------------------------------
   5:      1265.25   82.238980  (  0.000001   0.000000   9.068571)

--------------------------
THERMOCHEMISTRY AT 298.15K
--------------------------

Temperature         ... 298.15 K
Pressure            ... 1.00 atm
Total Mass          ... 44.07 AMU
The molecule is recognized as being linear

Throughout the following assumptions are being made:
  (1) The electronic state is orbitally nondegenerate
  (2) There are no thermally accessible electronically excited states
  (3) Hindered rotations indicated by low frequency modes are not
      treated as such but are treated as vibrations and this may
      cause some error
  (4) All equations used are the standard statistical mechanics
      equations for an ideal gas
  (5) All vibrations are strictly harmonic

freq.    1265.25  E(vib)   ...       0.01

------------
INNER ENERGY
------------

The inner energy is: U= E(el) + E(ZPE) + E(vib) + E(rot) + E(trans)
    E(el)   - is the total energy from the electronic structure calculation
              = E(kin-el) + E(nuc-el) + E(el-el) + E(nuc-nuc)
    E(ZPE)  - the the zero temperature vibrational energy from the frequency calculation
    E(vib)  - the the finite temperature correction to E(ZPE) due to population
              of excited vibrational states
    E(rot)  - is the rotational thermal energy
    E(trans)- is the translational thermal energy

Summary of contributions to the inner energy U:
Electronic energy                ...   -436.27824792 Eh
Zero point energy                ...      0.00288245 Eh       1.81 kcal/mol
Thermal vibrational correction   ...      0.00001289 Eh       0.01 kcal/mol
Thermal rotational correction    ...      0.00094418 Eh       0.59 kcal/mol
Thermal translational correction ...      0.00141627 Eh       0.89 kcal/mol
-----------------------------------------------------------------------
Total thermal energy                   -436.27299214 Eh

Summary of corrections to the electronic energy:
(perhaps to be used in another calculation)
Total thermal correction                  0.00237334 Eh       1.49 kcal/mol
Non-thermal (ZPE) correction              0.00288245 Eh       1.81 kcal/mol
-----------------------------------------------------------------------
Total correction                          0.00525579 Eh       3.30 kcal/mol

--------
ENTHALPY
--------

The enthalpy is H = U + kB*T
                kB is Boltzmann's constant
Total free energy                 ...   -436.27299214 Eh
Thermal Enthalpy correction       ...      0.00094421 Eh       0.59 kcal/mol
-----------------------------------------------------------------------
Total Enthalpy                    ...   -436.27204793 Eh

Note: Rotational entropy computed according to Herzberg
Infrared and Raman Spectra, Chapter V,1, Van Nostrand Reinhold, 1945
Point Group:  Cinfv, Symmetry Number:   1
Rotational constants in cm-1:     0.000000     0.809725     0.809725

Vibrational entropy computed according to the QRRHO of S. Grimme
Chem.Eur.J. 2012 18 9955

-------
ENTROPY
-------

The entropy contributions are T*S = T*(S(el)+S(vib)+S(rot)+S(trans))
     S(el)   - electronic entropy
     S(vib)  - vibrational entropy
     S(rot)  - rotational entropy
     S(trans)- translational entropy
The entropies will be listed as mutliplied by the temperature to get
units of energy

Electronic entropy                ...      0.00000000 Eh      0.00 kcal/mol
Vibrational entropy               ...      0.00001500 Eh      0.01 kcal/mol
Rotational entropy                ...      0.00617954 Eh      3.88 kcal/mol
Translational entropy             ...      0.01771079 Eh     11.11 kcal/mol
-----------------------------------------------------------------------
Final entropy term                ...      0.02390534 Eh     15.00 kcal/mol

In case the symmetry of your molecule has not been determined correctly
or in case you have a reason to use a different symmetry number we print
out the resulting rotational entropy values for sn=1,12 :
 --------------------------------------------------------
|  sn= 1 | S(rot)=             -nan Eh      -nan kcal/mol|
|  sn= 2 | S(rot)=             -nan Eh      -nan kcal/mol|
|  sn= 3 | S(rot)=             -nan Eh      -nan kcal/mol|
|  sn= 4 | S(rot)=             -nan Eh      -nan kcal/mol|
|  sn= 5 | S(rot)=             -nan Eh      -nan kcal/mol|
|  sn= 6 | S(rot)=             -nan Eh      -nan kcal/mol|
|  sn= 7 | S(rot)=             -nan Eh      -nan kcal/mol|
|  sn= 8 | S(rot)=             -nan Eh      -nan kcal/mol|
|  sn= 9 | S(rot)=             -nan Eh      -nan kcal/mol|
|  sn=10 | S(rot)=             -nan Eh      -nan kcal/mol|
|  sn=11 | S(rot)=             -nan Eh      -nan kcal/mol|
|  sn=12 | S(rot)=             -nan Eh      -nan kcal/mol|
 --------------------------------------------------------

-------------------
GIBBS FREE ENERGY
-------------------

The Gibbs free energy is G = H - T*S

Total enthalpy                    ...   -436.27204793 Eh
Total entropy correction          ...     -0.02390534 Eh    -15.00 kcal/mol
-----------------------------------------------------------------------
Final Gibbs free energy         ...   -436.29595326 Eh

For completeness - the Gibbs free energy minus the electronic energy
G-E(el)                           ...     -0.01770534 Eh    -11.11 kcal/mol

                             ****ORCA TERMINATED NORMALLY****
TOTAL RUN TIME: 0 days 0 hours 0 minutes 24 seconds 431 msec
