                         Program Version 4.2.0 -  RELEASE  -
|  1> #
|  2> # 14_F2 tpss/aug-cc-pvt(+d)z
|  3> #
|  4> ! tpss d3bj aug-cc-pvt(+d)z def2/j opt xyzfile numfreq
|  5>
|  6> *xyz 0 1
|  7> F           -0.000000102         -0.000000195         -0.694208668
|  8> F            0.000000102          0.000000195          0.694208668
|  9> *
| 10>
| 11> %pal
| 12> nprocs 24
| 13> end
| 14>
| 15>
| 16>                          ****END OF INPUT****
 Total Charge           Charge          ....    0
 Multiplicity           Mult            ....    1
 Number of Electrons    NEL             ....   18
Dispersion correction           -0.000199089
FINAL SINGLE POINT ENERGY      -199.611646211597
Dispersion correction            ... done
Dispersion correction           -0.000199125
FINAL SINGLE POINT ENERGY      -199.612141087028
Dispersion correction            ... done
Dispersion correction           -0.000199130
FINAL SINGLE POINT ENERGY      -199.612148388555
Dispersion correction            ... done
                    ***********************HURRAY********************

CARTESIAN COORDINATES (ANGSTROEM)
---------------------------------
  F     -0.000000   -0.000000   -0.707010
  F      0.000000    0.000000    0.707010

 Multiplicity           Mult            ....    1
 Number of Electrons    NEL             ....   18
 Basis Dimension        Dim             ....   92

ORBITAL ENERGIES
----------------

  NO   OCC          E(Eh)            E(eV)
   0   2.0000     -24.521476      -667.2633
   1   2.0000     -24.521466      -667.2630
   2   2.0000      -1.269930       -34.5566
   3   2.0000      -1.042303       -28.3625
   4   2.0000      -0.564930       -15.3725
   5   2.0000      -0.478725       -13.0268
   6   2.0000      -0.478725       -13.0268
   7   2.0000      -0.354321        -9.6416
   8   2.0000      -0.354321        -9.6416
   9   0.0000      -0.205579        -5.5941
  10   0.0000       0.076419         2.0795
  11   0.0000       0.081445         2.2162
  12   0.0000       0.112269         3.0550
  13   0.0000       0.112269         3.0550

MULLIKEN ATOMIC CHARGES
-----------------------
   0 F :    0.000000
   1 F :   -0.000000
Sum of atomic charges:   -0.0000000

LOEWDIN ATOMIC CHARGES
----------------------
   0 F :   -0.000000
   1 F :    0.000000

  Mayer bond orders larger than 0.100000
B(  0-F ,  1-F ) :   0.8378

Dispersion correction           -0.000199130
FINAL SINGLE POINT ENERGY      -199.612148719004

DIPOLE MOMENT
-------------
                                X             Y             Z
Electronic contribution:     -0.00000      -0.00000       0.00000
Nuclear contribution   :      0.00000       0.00000       0.00000
                        -----------------------------------------
Total Dipole Moment    :     -0.00000      -0.00000       0.00000
                        -----------------------------------------
Magnitude (a.u.)       :      0.00000
Magnitude (Debye)      :      0.00000

VIBRATIONAL FREQUENCIES
-----------------------

Scaling factor for frequencies =  1.000000000 (already applied!)

   0:         0.00 cm**-1
   1:         0.00 cm**-1
   2:         0.00 cm**-1
   3:         0.00 cm**-1
   4:         0.00 cm**-1
   5:      1011.73 cm**-1

IR SPECTRUM
-----------

 Mode    freq (cm**-1)   T**2         TX         TY         TZ
-------------------------------------------------------------------
   5:      1011.73    0.000000  ( -0.000000   0.000000   0.000005)

--------------------------
THERMOCHEMISTRY AT 298.15K
--------------------------

Temperature         ... 298.15 K
Pressure            ... 1.00 atm
Total Mass          ... 38.00 AMU
The molecule is recognized as being linear

Throughout the following assumptions are being made:
  (1) The electronic state is orbitally nondegenerate
  (2) There are no thermally accessible electronically excited states
  (3) Hindered rotations indicated by low frequency modes are not
      treated as such but are treated as vibrations and this may
      cause some error
  (4) All equations used are the standard statistical mechanics
      equations for an ideal gas
  (5) All vibrations are strictly harmonic

freq.    1011.73  E(vib)   ...       0.02

------------
INNER ENERGY
------------

The inner energy is: U= E(el) + E(ZPE) + E(vib) + E(rot) + E(trans)
    E(el)   - is the total energy from the electronic structure calculation
              = E(kin-el) + E(nuc-el) + E(el-el) + E(nuc-nuc)
    E(ZPE)  - the the zero temperature vibrational energy from the frequency calculation
    E(vib)  - the the finite temperature correction to E(ZPE) due to population
              of excited vibrational states
    E(rot)  - is the rotational thermal energy
    E(trans)- is the translational thermal energy

Summary of contributions to the inner energy U:
Electronic energy                ...   -199.61214872 Eh
Zero point energy                ...      0.00230490 Eh       1.45 kcal/mol
Thermal vibrational correction   ...      0.00003521 Eh       0.02 kcal/mol
Thermal rotational correction    ...      0.00094418 Eh       0.59 kcal/mol
Thermal translational correction ...      0.00141627 Eh       0.89 kcal/mol
-----------------------------------------------------------------------
Total thermal energy                   -199.60744816 Eh

Summary of corrections to the electronic energy:
(perhaps to be used in another calculation)
Total thermal correction                  0.00239566 Eh       1.50 kcal/mol
Non-thermal (ZPE) correction              0.00230490 Eh       1.45 kcal/mol
-----------------------------------------------------------------------
Total correction                          0.00470056 Eh       2.95 kcal/mol

--------
ENTHALPY
--------

The enthalpy is H = U + kB*T
                kB is Boltzmann's constant
Total free energy                 ...   -199.60744816 Eh
Thermal Enthalpy correction       ...      0.00094421 Eh       0.59 kcal/mol
-----------------------------------------------------------------------
Total Enthalpy                    ...   -199.60650395 Eh

Note: Rotational entropy computed according to Herzberg
Infrared and Raman Spectra, Chapter V,1, Van Nostrand Reinhold, 1945
Point Group:  Dinfh, Symmetry Number:   2
Rotational constants in cm-1:     0.000000     0.887582     0.887582

Vibrational entropy computed according to the QRRHO of S. Grimme
Chem.Eur.J. 2012 18 9955

-------
ENTROPY
-------

The entropy contributions are T*S = T*(S(el)+S(vib)+S(rot)+S(trans))
     S(el)   - electronic entropy
     S(vib)  - vibrational entropy
     S(rot)  - rotational entropy
     S(trans)- translational entropy
The entropies will be listed as mutliplied by the temperature to get
units of energy

Electronic entropy                ...      0.00000000 Eh      0.00 kcal/mol
Vibrational entropy               ...      0.00004242 Eh      0.03 kcal/mol
Rotational entropy                ...      0.00543840 Eh      3.41 kcal/mol
Translational entropy             ...      0.01750073 Eh     10.98 kcal/mol
-----------------------------------------------------------------------
Final entropy term                ...      0.02298155 Eh     14.42 kcal/mol

In case the symmetry of your molecule has not been determined correctly
or in case you have a reason to use a different symmetry number we print
out the resulting rotational entropy values for sn=1,12 :
 --------------------------------------------------------
|  sn= 1 | S(rot)=      -0.02091573 Eh    -13.12 kcal/mol|
|  sn= 2 | S(rot)=      -0.02157018 Eh    -13.54 kcal/mol|
|  sn= 3 | S(rot)=      -0.02195301 Eh    -13.78 kcal/mol|
|  sn= 4 | S(rot)=      -0.02222464 Eh    -13.95 kcal/mol|
|  sn= 5 | S(rot)=      -0.02243533 Eh    -14.08 kcal/mol|
|  sn= 6 | S(rot)=      -0.02260747 Eh    -14.19 kcal/mol|
|  sn= 7 | S(rot)=      -0.02275302 Eh    -14.28 kcal/mol|
|  sn= 8 | S(rot)=      -0.02287909 Eh    -14.36 kcal/mol|
|  sn= 9 | S(rot)=      -0.02299030 Eh    -14.43 kcal/mol|
|  sn=10 | S(rot)=      -0.02308978 Eh    -14.49 kcal/mol|
|  sn=11 | S(rot)=      -0.02317977 Eh    -14.55 kcal/mol|
|  sn=12 | S(rot)=      -0.02326193 Eh    -14.60 kcal/mol|
 --------------------------------------------------------

-------------------
GIBBS FREE ENERGY
-------------------

The Gibbs free energy is G = H - T*S

Total enthalpy                    ...   -199.60650395 Eh
Total entropy correction          ...     -0.02298155 Eh    -14.42 kcal/mol
-----------------------------------------------------------------------
Final Gibbs free energy         ...   -199.62948550 Eh

For completeness - the Gibbs free energy minus the electronic energy
G-E(el)                           ...     -0.01733678 Eh    -10.88 kcal/mol

                             ****ORCA TERMINATED NORMALLY****
TOTAL RUN TIME: 0 days 0 hours 0 minutes 18 seconds 293 msec
