                         Program Version 4.2.0 -  RELEASE  -
|  1> #
|  2> # 15_H2CO tpss/aug-cc-pvt(+d)z
|  3> #
|  4> ! tpss d3bj aug-cc-pvt(+d)z def2/j opt xyzfile numfreq
|  5>
|  6> *xyz 0 1
|  7> C           -0.008748659          0.001155597          0.000561564
|  8> O            1.179984630         -0.157249909         -0.074738871
|  9> H           -0.478730294          0.986582604         -0.186527529
| 10> H           -0.692514064         -0.830555519          0.260712785
| 11> *
| 12>
| 13> %pal
| 14> nprocs 24
| 15> end
| 16>
| 17>
| 18>                          ****END OF INPUT****
 Total Charge           Charge          ....    0
 Multiplicity           Mult            ....    1
 Number of Electrons    NEL             ....   16
Dispersion correction           -0.001314749
FINAL SINGLE POINT ENERGY      -114.566660443053
Dispersion correction            ... done
Dispersion correction           -0.001314423
FINAL SINGLE POINT ENERGY      -114.566760300295
Dispersion correction            ... done
Dispersion correction           -0.001314367
FINAL SINGLE POINT ENERGY      -114.566762954851
Dispersion correction            ... done
                    ***********************HURRAY********************

CARTESIAN COORDINATES (ANGSTROEM)
---------------------------------
  C     -0.007972    0.000912    0.000425
  O      1.188367   -0.158133   -0.075286
  H     -0.483112    0.987267   -0.186233
  H     -0.697291   -0.830114    0.261102

 Multiplicity           Mult            ....    1
 Number of Electrons    NEL             ....   16
 Basis Dimension        Dim             ....  138

ORBITAL ENERGIES
----------------

  NO   OCC          E(Eh)            E(eV)
   0   2.0000     -18.907074      -514.4877
   1   2.0000     -10.090726      -274.5826
   2   2.0000      -0.996334       -27.1116
   3   2.0000      -0.593690       -16.1551
   4   2.0000      -0.454701       -12.3730
   5   2.0000      -0.407468       -11.0878
   6   2.0000      -0.368941       -10.0394
   7   2.0000      -0.234824        -6.3899
   8   0.0000      -0.091337        -2.4854
   9   0.0000      -0.011846        -0.3223
  10   0.0000       0.016263         0.4425
  11   0.0000       0.027887         0.7588
  12   0.0000       0.045047         1.2258

MULLIKEN ATOMIC CHARGES
-----------------------
   0 C :   -0.055168
   1 O :   -0.400096
   2 H :    0.223695
   3 H :    0.231570
Sum of atomic charges:   -0.0000000

LOEWDIN ATOMIC CHARGES
----------------------
   0 C :    0.049946
   1 O :    0.423792
   2 H :   -0.236387
   3 H :   -0.237350

  Mayer bond orders larger than 0.100000
B(  0-C ,  1-O ) :   1.9017 B(  0-C ,  2-H ) :   0.8730 B(  0-C ,  3-H ) :   0.8552

Dispersion correction           -0.001314364
FINAL SINGLE POINT ENERGY      -114.566762712298

DIPOLE MOMENT
-------------
                                X             Y             Z
Electronic contribution:      1.31625      -0.17472      -0.08348
Nuclear contribution   :     -2.20636       0.29378       0.13992
                        -----------------------------------------
Total Dipole Moment    :     -0.89012       0.11906       0.05644
                        -----------------------------------------
Magnitude (a.u.)       :      0.89982
Magnitude (Debye)      :      2.28715

VIBRATIONAL FREQUENCIES
-----------------------

Scaling factor for frequencies =  1.000000000 (already applied!)

   0:         0.00 cm**-1
   1:         0.00 cm**-1
   2:         0.00 cm**-1
   3:         0.00 cm**-1
   4:         0.00 cm**-1
   5:         0.00 cm**-1
   6:      1174.30 cm**-1
   7:      1243.24 cm**-1
   8:      1516.32 cm**-1
   9:      1762.61 cm**-1
  10:      2840.19 cm**-1
  11:      2885.08 cm**-1

IR SPECTRUM
-----------

 Mode    freq (cm**-1)   T**2         TX         TY         TZ
-------------------------------------------------------------------
   6:      1174.30    6.236652  (  0.196203   0.448516   2.448875)
   7:      1243.24   10.441680  ( -0.440668  -3.119839   0.717003)
   8:      1516.32   11.192862  (  3.291142  -0.554891  -0.230964)
   9:      1762.61  101.986005  ( -9.995509   1.304931   0.610711)
  10:      2840.19   79.448770  ( -8.823232   1.112214   0.601931)
  11:      2885.08  131.949852  (  0.994773  11.120805  -2.699624)

--------------------------
THERMOCHEMISTRY AT 298.15K
--------------------------

Temperature         ... 298.15 K
Pressure            ... 1.00 atm
Total Mass          ... 30.03 AMU

Throughout the following assumptions are being made:
  (1) The electronic state is orbitally nondegenerate
  (2) There are no thermally accessible electronically excited states
  (3) Hindered rotations indicated by low frequency modes are not
      treated as such but are treated as vibrations and this may
      cause some error
  (4) All equations used are the standard statistical mechanics
      equations for an ideal gas
  (5) All vibrations are strictly harmonic

freq.    1174.30  E(vib)   ...       0.01
freq.    1243.24  E(vib)   ...       0.01
freq.    1516.32  E(vib)   ...       0.00
freq.    1762.61  E(vib)   ...       0.00
freq.    2840.19  E(vib)   ...       0.00
freq.    2885.08  E(vib)   ...       0.00

------------
INNER ENERGY
------------

The inner energy is: U= E(el) + E(ZPE) + E(vib) + E(rot) + E(trans)
    E(el)   - is the total energy from the electronic structure calculation
              = E(kin-el) + E(nuc-el) + E(el-el) + E(nuc-nuc)
    E(ZPE)  - the the zero temperature vibrational energy from the frequency calculation
    E(vib)  - the the finite temperature correction to E(ZPE) due to population
              of excited vibrational states
    E(rot)  - is the rotational thermal energy
    E(trans)- is the translational thermal energy

Summary of contributions to the inner energy U:
Electronic energy                ...   -114.56676271 Eh
Zero point energy                ...      0.02602064 Eh      16.33 kcal/mol
Thermal vibrational correction   ...      0.00003890 Eh       0.02 kcal/mol
Thermal rotational correction    ...      0.00141627 Eh       0.89 kcal/mol
Thermal translational correction ...      0.00141627 Eh       0.89 kcal/mol
-----------------------------------------------------------------------
Total thermal energy                   -114.53787063 Eh

Summary of corrections to the electronic energy:
(perhaps to be used in another calculation)
Total thermal correction                  0.00287145 Eh       1.80 kcal/mol
Non-thermal (ZPE) correction              0.02602064 Eh      16.33 kcal/mol
-----------------------------------------------------------------------
Total correction                          0.02889208 Eh      18.13 kcal/mol

--------
ENTHALPY
--------

The enthalpy is H = U + kB*T
                kB is Boltzmann's constant
Total free energy                 ...   -114.53787063 Eh
Thermal Enthalpy correction       ...      0.00094421 Eh       0.59 kcal/mol
-----------------------------------------------------------------------
Total Enthalpy                    ...   -114.53692642 Eh

Note: Only C1 symmetry has been detected, increase convergence thresholds
      if your molecule has a higher symmetry. Symmetry factor of 1.0 is
      used for the rotational entropy correction.

Note: Rotational entropy computed according to Herzberg
Infrared and Raman Spectra, Chapter V,1, Van Nostrand Reinhold, 1945
Point Group:  C1, Symmetry Number:   1
Rotational constants in cm-1:     9.424938     1.285908     1.131526

Vibrational entropy computed according to the QRRHO of S. Grimme
Chem.Eur.J. 2012 18 9955

-------
ENTROPY
-------

The entropy contributions are T*S = T*(S(el)+S(vib)+S(rot)+S(trans))
     S(el)   - electronic entropy
     S(vib)  - vibrational entropy
     S(rot)  - rotational entropy
     S(trans)- translational entropy
The entropies will be listed as mutliplied by the temperature to get
units of energy

Electronic entropy                ...      0.00000000 Eh      0.00 kcal/mol
Vibrational entropy               ...      0.00004535 Eh      0.03 kcal/mol
Rotational entropy                ...      0.00827469 Eh      5.19 kcal/mol
Translational entropy             ...      0.01716732 Eh     10.77 kcal/mol
-----------------------------------------------------------------------
Final entropy term                ...      0.02548736 Eh     15.99 kcal/mol

In case the symmetry of your molecule has not been determined correctly
or in case you have a reason to use a different symmetry number we print
out the resulting rotational entropy values for sn=1,12 :
 --------------------------------------------------------
|  sn= 1 | S(rot)=       0.00827469 Eh      5.19 kcal/mol|
|  sn= 2 | S(rot)=       0.00762024 Eh      4.78 kcal/mol|
|  sn= 3 | S(rot)=       0.00723740 Eh      4.54 kcal/mol|
|  sn= 4 | S(rot)=       0.00696578 Eh      4.37 kcal/mol|
|  sn= 5 | S(rot)=       0.00675509 Eh      4.24 kcal/mol|
|  sn= 6 | S(rot)=       0.00658295 Eh      4.13 kcal/mol|
|  sn= 7 | S(rot)=       0.00643740 Eh      4.04 kcal/mol|
|  sn= 8 | S(rot)=       0.00631132 Eh      3.96 kcal/mol|
|  sn= 9 | S(rot)=       0.00620011 Eh      3.89 kcal/mol|
|  sn=10 | S(rot)=       0.00610064 Eh      3.83 kcal/mol|
|  sn=11 | S(rot)=       0.00601065 Eh      3.77 kcal/mol|
|  sn=12 | S(rot)=       0.00592849 Eh      3.72 kcal/mol|
 --------------------------------------------------------

-------------------
GIBBS FREE ENERGY
-------------------

The Gibbs free energy is G = H - T*S

Total enthalpy                    ...   -114.53692642 Eh
Total entropy correction          ...     -0.02548736 Eh    -15.99 kcal/mol
-----------------------------------------------------------------------
Final Gibbs free energy         ...   -114.56241378 Eh

For completeness - the Gibbs free energy minus the electronic energy
G-E(el)                           ...      0.00434893 Eh      2.73 kcal/mol

                             ****ORCA TERMINATED NORMALLY****
TOTAL RUN TIME: 0 days 0 hours 0 minutes 28 seconds 548 msec
