                         Program Version 4.2.0 -  RELEASE  -
|  1> #
|  2> # 16_H2CS tpss/aug-cc-pvt(+d)z
|  3> #
|  4> ! tpss d3bj aug-cc-pvt(+d)z def2/j opt xyzfile numfreq
|  5>
|  6> *xyz 0 1
|  7> C           -0.111638623          0.008887387          0.001240584
|  8> S            1.485344299         -0.118821268         -0.016313713
|  9> H           -0.659438957          0.273908722          0.905432026
| 10> H           -0.714270859         -0.164037136         -0.890279494
| 11> *
| 12>
| 13> %pal
| 14> nprocs 24
| 15> end
| 16>
| 17>
| 18>                          ****END OF INPUT****
 Total Charge           Charge          ....    0
 Multiplicity           Mult            ....    1
 Number of Electrons    NEL             ....   24
Dispersion correction           -0.002358315
FINAL SINGLE POINT ENERGY      -437.531460504438
Dispersion correction            ... done
Dispersion correction           -0.002357118
FINAL SINGLE POINT ENERGY      -437.531553464311
Dispersion correction            ... done
Dispersion correction           -0.002356423
FINAL SINGLE POINT ENERGY      -437.531570405254
Dispersion correction            ... done
                    ***********************HURRAY********************

CARTESIAN COORDINATES (ANGSTROEM)
---------------------------------
  C     -0.111951    0.008912    0.001291
  S      1.495956   -0.119669   -0.016440
  H     -0.664590    0.274281    0.905309
  H     -0.719419   -0.163586   -0.890081

 Multiplicity           Mult            ....    1
 Number of Electrons    NEL             ....   24
 Basis Dimension        Dim             ....  147

ORBITAL ENERGIES
----------------

  NO   OCC          E(Eh)            E(eV)
   0   2.0000     -88.389317     -2405.1956
   1   2.0000     -10.065494      -273.8960
   2   2.0000      -7.745479      -210.7652
   3   2.0000      -5.728046      -155.8681
   4   2.0000      -5.724974      -155.7845
   5   2.0000      -5.716260      -155.5473
   6   2.0000      -0.745254       -20.2794
   7   2.0000      -0.561476       -15.2785
   8   2.0000      -0.428297       -11.6545
   9   2.0000      -0.364335        -9.9141
  10   2.0000      -0.299032        -8.1371
  11   2.0000      -0.207066        -5.6345
  12   0.0000      -0.128511        -3.4970
  13   0.0000      -0.014039        -0.3820
  14   0.0000       0.014386         0.3915
  15   0.0000       0.014489         0.3943
  16   0.0000       0.039967         1.0876

MULLIKEN ATOMIC CHARGES
-----------------------
   0 C :   -0.427531
   1 S :   -0.053706
   2 H :    0.233424
   3 H :    0.247813
Sum of atomic charges:   -0.0000000

LOEWDIN ATOMIC CHARGES
----------------------
   0 C :   -0.228248
   1 S :    0.878441
   2 H :   -0.325098
   3 H :   -0.325095

  Mayer bond orders larger than 0.100000
B(  0-C ,  1-S ) :   1.8169 B(  0-C ,  2-H ) :   0.8545 B(  0-C ,  3-H ) :   0.8459

Dispersion correction           -0.002356401
FINAL SINGLE POINT ENERGY      -437.531570505574

DIPOLE MOMENT
-------------
                                X             Y             Z
Electronic contribution:      2.46664      -0.19736      -0.02613
Nuclear contribution   :     -3.15443       0.25234       0.03465
                        -----------------------------------------
Total Dipole Moment    :     -0.68779       0.05498       0.00853
                        -----------------------------------------
Magnitude (a.u.)       :      0.69003
Magnitude (Debye)      :      1.75392

VIBRATIONAL FREQUENCIES
-----------------------

Scaling factor for frequencies =  1.000000000 (already applied!)

   0:         0.00 cm**-1
   1:         0.00 cm**-1
   2:         0.00 cm**-1
   3:         0.00 cm**-1
   4:         0.00 cm**-1
   5:         0.00 cm**-1
   6:       991.88 cm**-1
   7:      1014.81 cm**-1
   8:      1069.60 cm**-1
   9:      1486.62 cm**-1
  10:      3016.05 cm**-1
  11:      3090.41 cm**-1

IR SPECTRUM
-----------

 Mode    freq (cm**-1)   T**2         TX         TY         TZ
-------------------------------------------------------------------
   6:       991.88    3.111232  (  0.057652   0.513006   1.686634)
   7:      1014.81   35.496583  (  0.463835   5.751762  -1.482794)
   8:      1069.60   12.752896  ( -3.559927   0.279875   0.038588)
   9:      1486.62    6.077567  ( -2.456612   0.204409   0.028992)
  10:      3016.05   41.345703  ( -6.410780   0.489860   0.087373)
  11:      3090.41    6.271840  ( -0.015265   0.590104   2.433800)

--------------------------
THERMOCHEMISTRY AT 298.15K
--------------------------

Temperature         ... 298.15 K
Pressure            ... 1.00 atm
Total Mass          ... 46.09 AMU

Throughout the following assumptions are being made:
  (1) The electronic state is orbitally nondegenerate
  (2) There are no thermally accessible electronically excited states
  (3) Hindered rotations indicated by low frequency modes are not
      treated as such but are treated as vibrations and this may
      cause some error
  (4) All equations used are the standard statistical mechanics
      equations for an ideal gas
  (5) All vibrations are strictly harmonic

freq.     991.88  E(vib)   ...       0.02
freq.    1014.81  E(vib)   ...       0.02
freq.    1069.60  E(vib)   ...       0.02
freq.    1486.62  E(vib)   ...       0.00
freq.    3016.05  E(vib)   ...       0.00
freq.    3090.41  E(vib)   ...       0.00

------------
INNER ENERGY
------------

The inner energy is: U= E(el) + E(ZPE) + E(vib) + E(rot) + E(trans)
    E(el)   - is the total energy from the electronic structure calculation
              = E(kin-el) + E(nuc-el) + E(el-el) + E(nuc-nuc)
    E(ZPE)  - the the zero temperature vibrational energy from the frequency calculation
    E(vib)  - the the finite temperature correction to E(ZPE) due to population
              of excited vibrational states
    E(rot)  - is the rotational thermal energy
    E(trans)- is the translational thermal energy

Summary of contributions to the inner energy U:
Electronic energy                ...   -437.53157052 Eh
Zero point energy                ...      0.02430663 Eh      15.25 kcal/mol
Thermal vibrational correction   ...      0.00010612 Eh       0.07 kcal/mol
Thermal rotational correction    ...      0.00141627 Eh       0.89 kcal/mol
Thermal translational correction ...      0.00141627 Eh       0.89 kcal/mol
-----------------------------------------------------------------------
Total thermal energy                   -437.50432522 Eh

Summary of corrections to the electronic energy:
(perhaps to be used in another calculation)
Total thermal correction                  0.00293867 Eh       1.84 kcal/mol
Non-thermal (ZPE) correction              0.02430663 Eh      15.25 kcal/mol
-----------------------------------------------------------------------
Total correction                          0.02724530 Eh      17.10 kcal/mol

--------
ENTHALPY
--------

The enthalpy is H = U + kB*T
                kB is Boltzmann's constant
Total free energy                 ...   -437.50432522 Eh
Thermal Enthalpy correction       ...      0.00094421 Eh       0.59 kcal/mol
-----------------------------------------------------------------------
Total Enthalpy                    ...   -437.50338101 Eh

Note: Only C1 symmetry has been detected, increase convergence thresholds
      if your molecule has a higher symmetry. Symmetry factor of 1.0 is
      used for the rotational entropy correction.

Note: Rotational entropy computed according to Herzberg
Infrared and Raman Spectra, Chapter V,1, Van Nostrand Reinhold, 1945
Point Group:  C1, Symmetry Number:   1
Rotational constants in cm-1:     9.785296     0.587832     0.554520

Vibrational entropy computed according to the QRRHO of S. Grimme
Chem.Eur.J. 2012 18 9955

-------
ENTROPY
-------

The entropy contributions are T*S = T*(S(el)+S(vib)+S(rot)+S(trans))
     S(el)   - electronic entropy
     S(vib)  - vibrational entropy
     S(rot)  - rotational entropy
     S(trans)- translational entropy
The entropies will be listed as mutliplied by the temperature to get
units of energy

Electronic entropy                ...      0.00000000 Eh      0.00 kcal/mol
Vibrational entropy               ...      0.00012732 Eh      0.08 kcal/mol
Rotational entropy                ...      0.00896323 Eh      5.62 kcal/mol
Translational entropy             ...      0.01777414 Eh     11.15 kcal/mol
-----------------------------------------------------------------------
Final entropy term                ...      0.02686469 Eh     16.86 kcal/mol

In case the symmetry of your molecule has not been determined correctly
or in case you have a reason to use a different symmetry number we print
out the resulting rotational entropy values for sn=1,12 :
 --------------------------------------------------------
|  sn= 1 | S(rot)=       0.00896323 Eh      5.62 kcal/mol|
|  sn= 2 | S(rot)=       0.00830877 Eh      5.21 kcal/mol|
|  sn= 3 | S(rot)=       0.00792594 Eh      4.97 kcal/mol|
|  sn= 4 | S(rot)=       0.00765431 Eh      4.80 kcal/mol|
|  sn= 5 | S(rot)=       0.00744363 Eh      4.67 kcal/mol|
|  sn= 6 | S(rot)=       0.00727148 Eh      4.56 kcal/mol|
|  sn= 7 | S(rot)=       0.00712593 Eh      4.47 kcal/mol|
|  sn= 8 | S(rot)=       0.00699986 Eh      4.39 kcal/mol|
|  sn= 9 | S(rot)=       0.00688865 Eh      4.32 kcal/mol|
|  sn=10 | S(rot)=       0.00678917 Eh      4.26 kcal/mol|
|  sn=11 | S(rot)=       0.00669918 Eh      4.20 kcal/mol|
|  sn=12 | S(rot)=       0.00661702 Eh      4.15 kcal/mol|
 --------------------------------------------------------

-------------------
GIBBS FREE ENERGY
-------------------

The Gibbs free energy is G = H - T*S

Total enthalpy                    ...   -437.50338101 Eh
Total entropy correction          ...     -0.02686469 Eh    -16.86 kcal/mol
-----------------------------------------------------------------------
Final Gibbs free energy         ...   -437.53024570 Eh

For completeness - the Gibbs free energy minus the electronic energy
G-E(el)                           ...      0.00132482 Eh      0.83 kcal/mol

                             ****ORCA TERMINATED NORMALLY****
TOTAL RUN TIME: 0 days 0 hours 0 minutes 32 seconds 397 msec
