                         Program Version 4.2.0 -  RELEASE  -
|  1> #
|  2> # 17_H2O tpss/aug-cc-pvt(+d)z
|  3> #
|  4> ! tpss d3bj aug-cc-pvt(+d)z def2/j opt xyzfile numfreq
|  5>
|  6> *xyz 0 1
|  7> O            0.004834854          0.003524701         -0.002982157
|  8> H            0.274272539          0.890632971          0.255471383
|  9> H            0.605092602         -0.239557672         -0.714989224
| 10> *
| 11>
| 12> %pal
| 13> nprocs 24
| 14> end
| 15>
| 16>
| 17>                          ****END OF INPUT****
 Total Charge           Charge          ....    0
 Multiplicity           Mult            ....    1
 Number of Electrons    NEL             ....   10
Dispersion correction           -0.000420434
FINAL SINGLE POINT ENERGY       -76.467257106536
Dispersion correction            ... done
Dispersion correction           -0.000420450
FINAL SINGLE POINT ENERGY       -76.467319592152
Dispersion correction            ... done
Dispersion correction           -0.000420460
FINAL SINGLE POINT ENERGY       -76.467321836984
Dispersion correction            ... done
Dispersion correction           -0.000420468
FINAL SINGLE POINT ENERGY       -76.467321136336
Dispersion correction            ... done
                    ***********************HURRAY********************

CARTESIAN COORDINATES (ANGSTROEM)
---------------------------------
  O      0.000510    0.000328   -0.000724
  H      0.276208    0.892998    0.255003
  H      0.607482   -0.238726   -0.716779

 Multiplicity           Mult            ....    1
 Number of Electrons    NEL             ....   10
 Basis Dimension        Dim             ....   92

ORBITAL ENERGIES
----------------

  NO   OCC          E(Eh)            E(eV)
   0   2.0000     -18.892085      -514.0798
   1   2.0000      -0.949078       -25.8257
   2   2.0000      -0.485409       -13.2087
   3   2.0000      -0.347310        -9.4508
   4   2.0000      -0.268477        -7.3056
   5   0.0000      -0.029235        -0.7955
   6   0.0000       0.018947         0.5156
   7   0.0000       0.073173         1.9911
   8   0.0000       0.091634         2.4935
   9   0.0000       0.098519         2.6808

MULLIKEN ATOMIC CHARGES
-----------------------
   0 O :   -0.330387
   1 H :    0.167124
   2 H :    0.163263
Sum of atomic charges:   -0.0000000

LOEWDIN ATOMIC CHARGES
----------------------
   0 O :    1.018809
   1 H :   -0.509094
   2 H :   -0.509716

  Mayer bond orders larger than 0.100000
B(  0-O ,  1-H ) :   1.0058 B(  0-O ,  2-H ) :   1.0259

Dispersion correction           -0.000420468
FINAL SINGLE POINT ENERGY       -76.467321118519

DIPOLE MOMENT
-------------
                                X             Y             Z
Electronic contribution:     -0.20655      -0.14941       0.10563
Nuclear contribution   :      0.73470       0.54404      -0.38316
                        -----------------------------------------
Total Dipole Moment    :      0.52815       0.39463      -0.27753
                        -----------------------------------------
Magnitude (a.u.)       :      0.71533
Magnitude (Debye)      :      1.81823

VIBRATIONAL FREQUENCIES
-----------------------

Scaling factor for frequencies =  1.000000000 (already applied!)

   0:         0.00 cm**-1
   1:         0.00 cm**-1
   2:         0.00 cm**-1
   3:         0.00 cm**-1
   4:         0.00 cm**-1
   5:         0.00 cm**-1
   6:      1632.24 cm**-1
   7:      3698.40 cm**-1
   8:      3802.71 cm**-1

IR SPECTRUM
-----------

 Mode    freq (cm**-1)   T**2         TX         TY         TZ
-------------------------------------------------------------------
   6:      1632.24   63.862284  ( -5.947273  -4.387607   3.039923)
   7:      3698.40    1.417634  ( -0.906299  -0.625303   0.453049)
   8:      3802.71   41.918091  (  1.456482  -4.711905  -4.194604)

--------------------------
THERMOCHEMISTRY AT 298.15K
--------------------------

Temperature         ... 298.15 K
Pressure            ... 1.00 atm
Total Mass          ... 18.02 AMU

Throughout the following assumptions are being made:
  (1) The electronic state is orbitally nondegenerate
  (2) There are no thermally accessible electronically excited states
  (3) Hindered rotations indicated by low frequency modes are not
      treated as such but are treated as vibrations and this may
      cause some error
  (4) All equations used are the standard statistical mechanics
      equations for an ideal gas
  (5) All vibrations are strictly harmonic

freq.    1632.24  E(vib)   ...       0.00
freq.    3698.40  E(vib)   ...       0.00
freq.    3802.71  E(vib)   ...       0.00

------------
INNER ENERGY
------------

The inner energy is: U= E(el) + E(ZPE) + E(vib) + E(rot) + E(trans)
    E(el)   - is the total energy from the electronic structure calculation
              = E(kin-el) + E(nuc-el) + E(el-el) + E(nuc-nuc)
    E(ZPE)  - the the zero temperature vibrational energy from the frequency calculation
    E(vib)  - the the finite temperature correction to E(ZPE) due to population
              of excited vibrational states
    E(rot)  - is the rotational thermal energy
    E(trans)- is the translational thermal energy

Summary of contributions to the inner energy U:
Electronic energy                ...    -76.46732112 Eh
Zero point energy                ...      0.02080732 Eh      13.06 kcal/mol
Thermal vibrational correction   ...      0.00000282 Eh       0.00 kcal/mol
Thermal rotational correction    ...      0.00141627 Eh       0.89 kcal/mol
Thermal translational correction ...      0.00141627 Eh       0.89 kcal/mol
-----------------------------------------------------------------------
Total thermal energy                    -76.44367843 Eh

Summary of corrections to the electronic energy:
(perhaps to be used in another calculation)
Total thermal correction                  0.00283537 Eh       1.78 kcal/mol
Non-thermal (ZPE) correction              0.02080732 Eh      13.06 kcal/mol
-----------------------------------------------------------------------
Total correction                          0.02364269 Eh      14.84 kcal/mol

--------
ENTHALPY
--------

The enthalpy is H = U + kB*T
                kB is Boltzmann's constant
Total free energy                 ...    -76.44367843 Eh
Thermal Enthalpy correction       ...      0.00094421 Eh       0.59 kcal/mol
-----------------------------------------------------------------------
Total Enthalpy                    ...    -76.44273422 Eh

Note: Rotational entropy computed according to Herzberg
Infrared and Raman Spectra, Chapter V,1, Van Nostrand Reinhold, 1945
Point Group:  Cs, Symmetry Number:   1
Rotational constants in cm-1:    26.556049    14.325102     9.305465

Vibrational entropy computed according to the QRRHO of S. Grimme
Chem.Eur.J. 2012 18 9955

-------
ENTROPY
-------

The entropy contributions are T*S = T*(S(el)+S(vib)+S(rot)+S(trans))
     S(el)   - electronic entropy
     S(vib)  - vibrational entropy
     S(rot)  - rotational entropy
     S(trans)- translational entropy
The entropies will be listed as mutliplied by the temperature to get
units of energy

Electronic entropy                ...      0.00000000 Eh      0.00 kcal/mol
Vibrational entropy               ...      0.00000318 Eh      0.00 kcal/mol
Rotational entropy                ...      0.00565295 Eh      3.55 kcal/mol
Translational entropy             ...      0.01644380 Eh     10.32 kcal/mol
-----------------------------------------------------------------------
Final entropy term                ...      0.02209993 Eh     13.87 kcal/mol

In case the symmetry of your molecule has not been determined correctly
or in case you have a reason to use a different symmetry number we print
out the resulting rotational entropy values for sn=1,12 :
 --------------------------------------------------------
|  sn= 1 | S(rot)=       0.00565295 Eh      3.55 kcal/mol|
|  sn= 2 | S(rot)=       0.00499849 Eh      3.14 kcal/mol|
|  sn= 3 | S(rot)=       0.00461566 Eh      2.90 kcal/mol|
|  sn= 4 | S(rot)=       0.00434403 Eh      2.73 kcal/mol|
|  sn= 5 | S(rot)=       0.00413335 Eh      2.59 kcal/mol|
|  sn= 6 | S(rot)=       0.00396120 Eh      2.49 kcal/mol|
|  sn= 7 | S(rot)=       0.00381566 Eh      2.39 kcal/mol|
|  sn= 8 | S(rot)=       0.00368958 Eh      2.32 kcal/mol|
|  sn= 9 | S(rot)=       0.00357837 Eh      2.25 kcal/mol|
|  sn=10 | S(rot)=       0.00347889 Eh      2.18 kcal/mol|
|  sn=11 | S(rot)=       0.00338890 Eh      2.13 kcal/mol|
|  sn=12 | S(rot)=       0.00330675 Eh      2.08 kcal/mol|
 --------------------------------------------------------

-------------------
GIBBS FREE ENERGY
-------------------

The Gibbs free energy is G = H - T*S

Total enthalpy                    ...    -76.44273422 Eh
Total entropy correction          ...     -0.02209993 Eh    -13.87 kcal/mol
-----------------------------------------------------------------------
Final Gibbs free energy         ...    -76.46483416 Eh

For completeness - the Gibbs free energy minus the electronic energy
G-E(el)                           ...      0.00248697 Eh      1.56 kcal/mol

                             ****ORCA TERMINATED NORMALLY****
TOTAL RUN TIME: 0 days 0 hours 0 minutes 23 seconds 10 msec
