                         Program Version 4.2.0 -  RELEASE  -
|  1> #
|  2> # 18_H2S tpss/aug-cc-pvt(+d)z
|  3> #
|  4> ! tpss d3bj aug-cc-pvt(+d)z def2/j opt xyzfile numfreq
|  5>
|  6> *xyz 0 1
|  7> S           -0.001470633          0.617319337         -0.000000023
|  8> H            0.970605688         -0.306349104         -0.000000002
|  9> H           -0.969135055         -0.310970228          0.000000025
| 10> *
| 11>
| 12> %pal
| 13> nprocs 24
| 14> end
| 15>
| 16>
| 17>                          ****END OF INPUT****
 Total Charge           Charge          ....    0
 Multiplicity           Mult            ....    1
 Number of Electrons    NEL             ....   18
Dispersion correction           -0.000981041
FINAL SINGLE POINT ENERGY      -399.438699048957
Dispersion correction            ... done
Dispersion correction           -0.000981049
FINAL SINGLE POINT ENERGY      -399.438714226572
Dispersion correction            ... done
Dispersion correction           -0.000981073
FINAL SINGLE POINT ENERGY      -399.438715387203
Dispersion correction            ... done
                    ***********************HURRAY********************

CARTESIAN COORDINATES (ANGSTROEM)
---------------------------------
  S     -0.001481    0.622465   -0.000000
  H      0.968969   -0.308925   -0.000000
  H     -0.967489   -0.313540    0.000000

 Multiplicity           Mult            ....    1
 Number of Electrons    NEL             ....   18
 Basis Dimension        Dim             ....  101

ORBITAL ENERGIES
----------------

  NO   OCC          E(Eh)            E(eV)
   0   2.0000     -88.396520     -2405.3916
   1   2.0000      -7.753149      -210.9739
   2   2.0000      -5.735007      -156.0575
   3   2.0000      -5.731616      -155.9652
   4   2.0000      -5.725251      -155.7920
   5   2.0000      -0.691627       -18.8201
   6   2.0000      -0.412436       -11.2229
   7   2.0000      -0.339304        -9.2329
   8   2.0000      -0.234703        -6.3866
   9   0.0000      -0.025557        -0.6954
  10   0.0000      -0.017136        -0.4663
  11   0.0000       0.023478         0.6389
  12   0.0000       0.043376         1.1803
  13   0.0000       0.048063         1.3079

MULLIKEN ATOMIC CHARGES
-----------------------
   0 S :   -0.149181
   1 H :    0.074342
   2 H :    0.074839
Sum of atomic charges:   -0.0000000

LOEWDIN ATOMIC CHARGES
----------------------
   0 S :    1.303309
   1 H :   -0.651657
   2 H :   -0.651652

  Mayer bond orders larger than 0.100000
B(  0-S ,  1-H ) :   1.0297 B(  0-S ,  2-H ) :   1.0295

Dispersion correction           -0.000981081
FINAL SINGLE POINT ENERGY      -399.438715281054

DIPOLE MOMENT
-------------
                                X             Y             Z
Electronic contribution:     -0.00301       1.26656      -0.00000
Nuclear contribution   :      0.00392      -1.64990       0.00000
                        -----------------------------------------
Total Dipole Moment    :      0.00092      -0.38333       0.00000
                        -----------------------------------------
Magnitude (a.u.)       :      0.38333
Magnitude (Debye)      :      0.97435

VIBRATIONAL FREQUENCIES
-----------------------

Scaling factor for frequencies =  1.000000000 (already applied!)

   0:         0.00 cm**-1
   1:         0.00 cm**-1
   2:         0.00 cm**-1
   3:         0.00 cm**-1
   4:         0.00 cm**-1
   5:         0.00 cm**-1
   6:      1202.65 cm**-1
   7:      2664.13 cm**-1
   8:      2674.11 cm**-1

IR SPECTRUM
-----------

 Mode    freq (cm**-1)   T**2         TX         TY         TZ
-------------------------------------------------------------------
   6:      1202.65    0.436423  ( -0.000038   0.660623  -0.000000)
   7:      2664.13    0.320474  ( -0.001496   0.566102  -0.000000)
   8:      2674.11    0.015259  ( -0.123521  -0.001347   0.000000)

--------------------------
THERMOCHEMISTRY AT 298.15K
--------------------------

Temperature         ... 298.15 K
Pressure            ... 1.00 atm
Total Mass          ... 34.08 AMU

Throughout the following assumptions are being made:
  (1) The electronic state is orbitally nondegenerate
  (2) There are no thermally accessible electronically excited states
  (3) Hindered rotations indicated by low frequency modes are not
      treated as such but are treated as vibrations and this may
      cause some error
  (4) All equations used are the standard statistical mechanics
      equations for an ideal gas
  (5) All vibrations are strictly harmonic

freq.    1202.65  E(vib)   ...       0.01
freq.    2664.13  E(vib)   ...       0.00
freq.    2674.11  E(vib)   ...       0.00

------------
INNER ENERGY
------------

The inner energy is: U= E(el) + E(ZPE) + E(vib) + E(rot) + E(trans)
    E(el)   - is the total energy from the electronic structure calculation
              = E(kin-el) + E(nuc-el) + E(el-el) + E(nuc-nuc)
    E(ZPE)  - the the zero temperature vibrational energy from the frequency calculation
    E(vib)  - the the finite temperature correction to E(ZPE) due to population
              of excited vibrational states
    E(rot)  - is the rotational thermal energy
    E(trans)- is the translational thermal energy

Summary of contributions to the inner energy U:
Electronic energy                ...   -399.43871530 Eh
Zero point energy                ...      0.01490123 Eh       9.35 kcal/mol
Thermal vibrational correction   ...      0.00001665 Eh       0.01 kcal/mol
Thermal rotational correction    ...      0.00141627 Eh       0.89 kcal/mol
Thermal translational correction ...      0.00141627 Eh       0.89 kcal/mol
-----------------------------------------------------------------------
Total thermal energy                   -399.42096489 Eh

Summary of corrections to the electronic energy:
(perhaps to be used in another calculation)
Total thermal correction                  0.00284919 Eh       1.79 kcal/mol
Non-thermal (ZPE) correction              0.01490123 Eh       9.35 kcal/mol
-----------------------------------------------------------------------
Total correction                          0.01775041 Eh      11.14 kcal/mol

--------
ENTHALPY
--------

The enthalpy is H = U + kB*T
                kB is Boltzmann's constant
Total free energy                 ...   -399.42096489 Eh
Thermal Enthalpy correction       ...      0.00094421 Eh       0.59 kcal/mol
-----------------------------------------------------------------------
Total Enthalpy                    ...   -399.42002068 Eh

Note: Rotational entropy computed according to Herzberg
Infrared and Raman Spectra, Chapter V,1, Van Nostrand Reinhold, 1945
Point Group:  Cs, Symmetry Number:   1
Rotational constants in cm-1:    10.194762     8.919652     4.757338

Vibrational entropy computed according to the QRRHO of S. Grimme
Chem.Eur.J. 2012 18 9955

-------
ENTROPY
-------

The entropy contributions are T*S = T*(S(el)+S(vib)+S(rot)+S(trans))
     S(el)   - electronic entropy
     S(vib)  - vibrational entropy
     S(rot)  - rotational entropy
     S(trans)- translational entropy
The entropies will be listed as mutliplied by the temperature to get
units of energy

Electronic entropy                ...      0.00000000 Eh      0.00 kcal/mol
Vibrational entropy               ...      0.00001951 Eh      0.01 kcal/mol
Rotational entropy                ...      0.00664531 Eh      4.17 kcal/mol
Translational entropy             ...      0.01734652 Eh     10.89 kcal/mol
-----------------------------------------------------------------------
Final entropy term                ...      0.02401133 Eh     15.07 kcal/mol

In case the symmetry of your molecule has not been determined correctly
or in case you have a reason to use a different symmetry number we print
out the resulting rotational entropy values for sn=1,12 :
 --------------------------------------------------------
|  sn= 1 | S(rot)=       0.00664531 Eh      4.17 kcal/mol|
|  sn= 2 | S(rot)=       0.00599085 Eh      3.76 kcal/mol|
|  sn= 3 | S(rot)=       0.00560802 Eh      3.52 kcal/mol|
|  sn= 4 | S(rot)=       0.00533639 Eh      3.35 kcal/mol|
|  sn= 5 | S(rot)=       0.00512571 Eh      3.22 kcal/mol|
|  sn= 6 | S(rot)=       0.00495356 Eh      3.11 kcal/mol|
|  sn= 7 | S(rot)=       0.00480802 Eh      3.02 kcal/mol|
|  sn= 8 | S(rot)=       0.00468194 Eh      2.94 kcal/mol|
|  sn= 9 | S(rot)=       0.00457073 Eh      2.87 kcal/mol|
|  sn=10 | S(rot)=       0.00447125 Eh      2.81 kcal/mol|
|  sn=11 | S(rot)=       0.00438126 Eh      2.75 kcal/mol|
|  sn=12 | S(rot)=       0.00429910 Eh      2.70 kcal/mol|
 --------------------------------------------------------

-------------------
GIBBS FREE ENERGY
-------------------

The Gibbs free energy is G = H - T*S

Total enthalpy                    ...   -399.42002068 Eh
Total entropy correction          ...     -0.02401133 Eh    -15.07 kcal/mol
-----------------------------------------------------------------------
Final Gibbs free energy         ...   -399.44403201 Eh

For completeness - the Gibbs free energy minus the electronic energy
G-E(el)                           ...     -0.00531671 Eh     -3.34 kcal/mol

                             ****ORCA TERMINATED NORMALLY****
TOTAL RUN TIME: 0 days 0 hours 0 minutes 21 seconds 555 msec
