                         Program Version 4.2.0 -  RELEASE  -
|  1> #
|  2> # 19_HCl tpss/aug-cc-pvt(+d)z
|  3> #
|  4> ! tpss d3bj aug-cc-pvt(+d)z def2/j opt xyzfile numfreq
|  5>
|  6> *xyz 0 1
|  7> Cl           0.640695451         -0.000000005          0.000000019
|  8> H           -0.640695451          0.000000005         -0.000000019
|  9> *
| 10>
| 11> %pal
| 12> nprocs 24
| 13> end
| 14>
| 15>
| 16>                          ****END OF INPUT****
 Total Charge           Charge          ....    0
 Multiplicity           Mult            ....    1
 Number of Electrons    NEL             ....   18
Dispersion correction           -0.000393801
FINAL SINGLE POINT ENERGY      -460.848553035559
Dispersion correction            ... done
Dispersion correction           -0.000393798
FINAL SINGLE POINT ENERGY      -460.848556735321
Dispersion correction            ... done
Dispersion correction           -0.000393798
FINAL SINGLE POINT ENERGY      -460.848556635754
Dispersion correction            ... done
                    ***********************HURRAY********************

CARTESIAN COORDINATES (ANGSTROEM)
---------------------------------
  Cl     0.642192   -0.000000    0.000000
  H     -0.642192    0.000000   -0.000000

 Multiplicity           Mult            ....    1
 Number of Electrons    NEL             ....   18
 Basis Dimension        Dim             ....   78

ORBITAL ENERGIES
----------------

  NO   OCC          E(Eh)            E(eV)
   0   2.0000    -101.032932     -2749.2458
   1   2.0000      -9.260699      -251.9964
   2   2.0000      -7.041907      -191.6200
   3   2.0000      -7.031893      -191.3475
   4   2.0000      -7.031893      -191.3475
   5   2.0000      -0.788789       -21.4640
   6   2.0000      -0.438648       -11.9362
   7   2.0000      -0.299223        -8.1423
   8   2.0000      -0.299223        -8.1423
   9   0.0000      -0.035799        -0.9742
  10   0.0000       0.026705         0.7267
  11   0.0000       0.052432         1.4267
  12   0.0000       0.057980         1.5777
  13   0.0000       0.057980         1.5777

MULLIKEN ATOMIC CHARGES
-----------------------
   0 Cl:   -0.100310
   1 H :    0.100310
Sum of atomic charges:    0.0000000

LOEWDIN ATOMIC CHARGES
----------------------
   0 Cl:    0.914303
   1 H :   -0.914303

  Mayer bond orders larger than 0.100000
B(  0-Cl,  1-H ) :   1.1128

Dispersion correction           -0.000393798
FINAL SINGLE POINT ENERGY      -460.848556623984

DIPOLE MOMENT
-------------
                                X             Y             Z
Electronic contribution:      0.79170      -0.00000       0.00000
Nuclear contribution   :     -1.21932       0.00000      -0.00000
                        -----------------------------------------
Total Dipole Moment    :     -0.42762       0.00000      -0.00000
                        -----------------------------------------
Magnitude (a.u.)       :      0.42762
Magnitude (Debye)      :      1.08693

VIBRATIONAL FREQUENCIES
-----------------------

Scaling factor for frequencies =  1.000000000 (already applied!)

   0:         0.00 cm**-1
   1:         0.00 cm**-1
   2:         0.00 cm**-1
   3:         0.00 cm**-1
   4:         0.00 cm**-1
   5:      2915.64 cm**-1

IR SPECTRUM
-----------

 Mode    freq (cm**-1)   T**2         TX         TY         TZ
-------------------------------------------------------------------
   5:      2915.64   39.466905  ( -6.282269   0.000000   0.000001)

--------------------------
THERMOCHEMISTRY AT 298.15K
--------------------------

Temperature         ... 298.15 K
Pressure            ... 1.00 atm
Total Mass          ... 36.46 AMU
The molecule is recognized as being linear

Throughout the following assumptions are being made:
  (1) The electronic state is orbitally nondegenerate
  (2) There are no thermally accessible electronically excited states
  (3) Hindered rotations indicated by low frequency modes are not
      treated as such but are treated as vibrations and this may
      cause some error
  (4) All equations used are the standard statistical mechanics
      equations for an ideal gas
  (5) All vibrations are strictly harmonic

freq.    2915.64  E(vib)   ...       0.00

------------
INNER ENERGY
------------

The inner energy is: U= E(el) + E(ZPE) + E(vib) + E(rot) + E(trans)
    E(el)   - is the total energy from the electronic structure calculation
              = E(kin-el) + E(nuc-el) + E(el-el) + E(nuc-nuc)
    E(ZPE)  - the the zero temperature vibrational energy from the frequency calculation
    E(vib)  - the the finite temperature correction to E(ZPE) due to population
              of excited vibrational states
    E(rot)  - is the rotational thermal energy
    E(trans)- is the translational thermal energy

Summary of contributions to the inner energy U:
Electronic energy                ...   -460.84855662 Eh
Zero point energy                ...      0.00664231 Eh       4.17 kcal/mol
Thermal vibrational correction   ...      0.00000001 Eh       0.00 kcal/mol
Thermal rotational correction    ...      0.00094418 Eh       0.59 kcal/mol
Thermal translational correction ...      0.00141627 Eh       0.89 kcal/mol
-----------------------------------------------------------------------
Total thermal energy                   -460.83955385 Eh

Summary of corrections to the electronic energy:
(perhaps to be used in another calculation)
Total thermal correction                  0.00236046 Eh       1.48 kcal/mol
Non-thermal (ZPE) correction              0.00664231 Eh       4.17 kcal/mol
-----------------------------------------------------------------------
Total correction                          0.00900277 Eh       5.65 kcal/mol

--------
ENTHALPY
--------

The enthalpy is H = U + kB*T
                kB is Boltzmann's constant
Total free energy                 ...   -460.83955385 Eh
Thermal Enthalpy correction       ...      0.00094421 Eh       0.59 kcal/mol
-----------------------------------------------------------------------
Total Enthalpy                    ...   -460.83860964 Eh

Note: Rotational entropy computed according to Herzberg
Infrared and Raman Spectra, Chapter V,1, Van Nostrand Reinhold, 1945
Point Group:  Cinfv, Symmetry Number:   1
Rotational constants in cm-1:     0.000000    10.426113    10.426113

Vibrational entropy computed according to the QRRHO of S. Grimme
Chem.Eur.J. 2012 18 9955

-------
ENTROPY
-------

The entropy contributions are T*S = T*(S(el)+S(vib)+S(rot)+S(trans))
     S(el)   - electronic entropy
     S(vib)  - vibrational entropy
     S(rot)  - rotational entropy
     S(trans)- translational entropy
The entropies will be listed as mutliplied by the temperature to get
units of energy

Electronic entropy                ...      0.00000000 Eh      0.00 kcal/mol
Vibrational entropy               ...      0.00000001 Eh      0.00 kcal/mol
Rotational entropy                ...      0.00376681 Eh      2.36 kcal/mol
Translational entropy             ...      0.01744233 Eh     10.95 kcal/mol
-----------------------------------------------------------------------
Final entropy term                ...      0.02120914 Eh     13.31 kcal/mol

In case the symmetry of your molecule has not been determined correctly
or in case you have a reason to use a different symmetry number we print
out the resulting rotational entropy values for sn=1,12 :
 --------------------------------------------------------
|  sn= 1 | S(rot)=      -0.01165298 Eh     -7.31 kcal/mol|
|  sn= 2 | S(rot)=      -0.01230744 Eh     -7.72 kcal/mol|
|  sn= 3 | S(rot)=      -0.01269027 Eh     -7.96 kcal/mol|
|  sn= 4 | S(rot)=      -0.01296189 Eh     -8.13 kcal/mol|
|  sn= 5 | S(rot)=      -0.01317258 Eh     -8.27 kcal/mol|
|  sn= 6 | S(rot)=      -0.01334473 Eh     -8.37 kcal/mol|
|  sn= 7 | S(rot)=      -0.01349027 Eh     -8.47 kcal/mol|
|  sn= 8 | S(rot)=      -0.01361635 Eh     -8.54 kcal/mol|
|  sn= 9 | S(rot)=      -0.01372756 Eh     -8.61 kcal/mol|
|  sn=10 | S(rot)=      -0.01382704 Eh     -8.68 kcal/mol|
|  sn=11 | S(rot)=      -0.01391703 Eh     -8.73 kcal/mol|
|  sn=12 | S(rot)=      -0.01399918 Eh     -8.78 kcal/mol|
 --------------------------------------------------------

-------------------
GIBBS FREE ENERGY
-------------------

The Gibbs free energy is G = H - T*S

Total enthalpy                    ...   -460.83860964 Eh
Total entropy correction          ...     -0.02120914 Eh    -13.31 kcal/mol
-----------------------------------------------------------------------
Final Gibbs free energy         ...   -460.85981879 Eh

For completeness - the Gibbs free energy minus the electronic energy
G-E(el)                           ...     -0.01126216 Eh     -7.07 kcal/mol

                             ****ORCA TERMINATED NORMALLY****
TOTAL RUN TIME: 0 days 0 hours 0 minutes 18 seconds 394 msec
