                         Program Version 4.2.0 -  RELEASE  -
|  1> #
|  2> # 20_HCN tpss/aug-cc-pvt(+d)z
|  3> #
|  4> ! tpss d3bj aug-cc-pvt(+d)z def2/j opt xyzfile numfreq
|  5>
|  6> *xyz 0 1
|  7> C           0.000000000         0.000000000         -0.025909074
|  8> N           0.000000000         0.000000000          1.121277177
|  9> H           0.000000000         0.000000000         -1.095368103
| 10> *
| 11>
| 12> %pal
| 13> nprocs 24
| 14> end
| 15>
| 16>
| 17>                          ****END OF INPUT****
 Total Charge           Charge          ....    0
 Multiplicity           Mult            ....    1
 Number of Electrons    NEL             ....   14
Dispersion correction           -0.001028643
FINAL SINGLE POINT ENERGY       -93.475902975003
Dispersion correction            ... done
Dispersion correction           -0.001028329
FINAL SINGLE POINT ENERGY       -93.476041374311
Dispersion correction            ... done
Dispersion correction           -0.001028289
FINAL SINGLE POINT ENERGY       -93.476042795466
Dispersion correction            ... done
                    ***********************HURRAY********************

CARTESIAN COORDINATES (ANGSTROEM)
---------------------------------
  C     -0.000000    0.000000   -0.028137
  N      0.000000   -0.000000    1.126851
  H      0.000000   -0.000000   -1.098714

 Multiplicity           Mult            ....    1
 Number of Electrons    NEL             ....   14
 Basis Dimension        Dim             ....  115

ORBITAL ENERGIES
----------------

  NO   OCC          E(Eh)            E(eV)
   0   2.0000     -14.128562      -384.4577
   1   2.0000     -10.044218      -273.3171
   2   2.0000      -0.862004       -23.4563
   3   2.0000      -0.568864       -15.4796
   4   2.0000      -0.343009        -9.3337
   5   2.0000      -0.331908        -9.0317
   6   2.0000      -0.331908        -9.0317
   7   0.0000      -0.034135        -0.9289
   8   0.0000      -0.034135        -0.9289
   9   0.0000      -0.009595        -0.2611
  10   0.0000       0.016155         0.4396
  11   0.0000       0.046305         1.2600

MULLIKEN ATOMIC CHARGES
-----------------------
   0 C :   -0.299728
   1 N :   -0.286092
   2 H :    0.585821
Sum of atomic charges:   -0.0000000

LOEWDIN ATOMIC CHARGES
----------------------
   0 C :    0.083444
   1 N :    0.198790
   2 H :   -0.282234

  Mayer bond orders larger than 0.100000
B(  0-C ,  1-N ) :   2.4867 B(  0-C ,  2-H ) :   0.5119

Dispersion correction           -0.001028288
FINAL SINGLE POINT ENERGY       -93.476042806546

DIPOLE MOMENT
-------------
                                X             Y             Z
Electronic contribution:      0.00000       0.00000       0.35818
Nuclear contribution   :      0.00000      -0.00000      -1.52524
                        -----------------------------------------
Total Dipole Moment    :      0.00000       0.00000      -1.16707
                        -----------------------------------------
Magnitude (a.u.)       :      1.16707
Magnitude (Debye)      :      2.96645

VIBRATIONAL FREQUENCIES
-----------------------

Scaling factor for frequencies =  1.000000000 (already applied!)

   0:         0.00 cm**-1
   1:         0.00 cm**-1
   2:         0.00 cm**-1
   3:         0.00 cm**-1
   4:         0.00 cm**-1
   5:       760.44 cm**-1
   6:       760.45 cm**-1
   7:      2135.64 cm**-1
   8:      3394.55 cm**-1

IR SPECTRUM
-----------

 Mode    freq (cm**-1)   T**2         TX         TY         TZ
-------------------------------------------------------------------
   5:       760.44   37.629374  ( -3.479896   5.051702  -0.000004)
   6:       760.45   37.629048  ( -5.051686  -3.479872   0.000005)
   7:      2135.64    0.341812  ( -0.000001   0.000006   0.584647)
   8:      3394.55   60.245074  ( -0.000002   0.000002  -7.761770)

--------------------------
THERMOCHEMISTRY AT 298.15K
--------------------------

Temperature         ... 298.15 K
Pressure            ... 1.00 atm
Total Mass          ... 27.03 AMU
The molecule is recognized as being linear

Throughout the following assumptions are being made:
  (1) The electronic state is orbitally nondegenerate
  (2) There are no thermally accessible electronically excited states
  (3) Hindered rotations indicated by low frequency modes are not
      treated as such but are treated as vibrations and this may
      cause some error
  (4) All equations used are the standard statistical mechanics
      equations for an ideal gas
  (5) All vibrations are strictly harmonic

freq.     760.44  E(vib)   ...       0.06
freq.     760.45  E(vib)   ...       0.06
freq.    2135.64  E(vib)   ...       0.00
freq.    3394.55  E(vib)   ...       0.00

------------
INNER ENERGY
------------

The inner energy is: U= E(el) + E(ZPE) + E(vib) + E(rot) + E(trans)
    E(el)   - is the total energy from the electronic structure calculation
              = E(kin-el) + E(nuc-el) + E(el-el) + E(nuc-nuc)
    E(ZPE)  - the the zero temperature vibrational energy from the frequency calculation
    E(vib)  - the the finite temperature correction to E(ZPE) due to population
              of excited vibrational states
    E(rot)  - is the rotational thermal energy
    E(trans)- is the translational thermal energy

Summary of contributions to the inner energy U:
Electronic energy                ...    -93.47604281 Eh
Zero point energy                ...      0.01606355 Eh      10.08 kcal/mol
Thermal vibrational correction   ...      0.00018156 Eh       0.11 kcal/mol
Thermal rotational correction    ...      0.00094418 Eh       0.59 kcal/mol
Thermal translational correction ...      0.00141627 Eh       0.89 kcal/mol
-----------------------------------------------------------------------
Total thermal energy                    -93.45743724 Eh

Summary of corrections to the electronic energy:
(perhaps to be used in another calculation)
Total thermal correction                  0.00254202 Eh       1.60 kcal/mol
Non-thermal (ZPE) correction              0.01606355 Eh      10.08 kcal/mol
-----------------------------------------------------------------------
Total correction                          0.01860556 Eh      11.68 kcal/mol

--------
ENTHALPY
--------

The enthalpy is H = U + kB*T
                kB is Boltzmann's constant
Total free energy                 ...    -93.45743724 Eh
Thermal Enthalpy correction       ...      0.00094421 Eh       0.59 kcal/mol
-----------------------------------------------------------------------
Total Enthalpy                    ...    -93.45649304 Eh

Note: Rotational entropy computed according to Herzberg
Infrared and Raman Spectra, Chapter V,1, Van Nostrand Reinhold, 1945
Point Group:  Cinfv, Symmetry Number:   1
Rotational constants in cm-1:     0.000000     1.478055     1.478055

Vibrational entropy computed according to the QRRHO of S. Grimme
Chem.Eur.J. 2012 18 9955

-------
ENTROPY
-------

The entropy contributions are T*S = T*(S(el)+S(vib)+S(rot)+S(trans))
     S(el)   - electronic entropy
     S(vib)  - vibrational entropy
     S(rot)  - rotational entropy
     S(trans)- translational entropy
The entropies will be listed as mutliplied by the temperature to get
units of energy

Electronic entropy                ...      0.00000000 Eh      0.00 kcal/mol
Vibrational entropy               ...      0.00023051 Eh      0.14 kcal/mol
Rotational entropy                ...      0.00561135 Eh      3.52 kcal/mol
Translational entropy             ...      0.01701823 Eh     10.68 kcal/mol
-----------------------------------------------------------------------
Final entropy term                ...      0.02286009 Eh     14.34 kcal/mol

In case the symmetry of your molecule has not been determined correctly
or in case you have a reason to use a different symmetry number we print
out the resulting rotational entropy values for sn=1,12 :
 --------------------------------------------------------
|  sn= 1 | S(rot)=      -0.00959603 Eh     -6.02 kcal/mol|
|  sn= 2 | S(rot)=      -0.01025049 Eh     -6.43 kcal/mol|
|  sn= 3 | S(rot)=      -0.01063332 Eh     -6.67 kcal/mol|
|  sn= 4 | S(rot)=      -0.01090494 Eh     -6.84 kcal/mol|
|  sn= 5 | S(rot)=      -0.01111563 Eh     -6.98 kcal/mol|
|  sn= 6 | S(rot)=      -0.01128777 Eh     -7.08 kcal/mol|
|  sn= 7 | S(rot)=      -0.01143332 Eh     -7.17 kcal/mol|
|  sn= 8 | S(rot)=      -0.01155940 Eh     -7.25 kcal/mol|
|  sn= 9 | S(rot)=      -0.01167061 Eh     -7.32 kcal/mol|
|  sn=10 | S(rot)=      -0.01177009 Eh     -7.39 kcal/mol|
|  sn=11 | S(rot)=      -0.01186008 Eh     -7.44 kcal/mol|
|  sn=12 | S(rot)=      -0.01194223 Eh     -7.49 kcal/mol|
 --------------------------------------------------------

-------------------
GIBBS FREE ENERGY
-------------------

The Gibbs free energy is G = H - T*S

Total enthalpy                    ...    -93.45649304 Eh
Total entropy correction          ...     -0.02286009 Eh    -14.34 kcal/mol
-----------------------------------------------------------------------
Final Gibbs free energy         ...    -93.47935313 Eh

For completeness - the Gibbs free energy minus the electronic energy
G-E(el)                           ...     -0.00331032 Eh     -2.08 kcal/mol

                             ****ORCA TERMINATED NORMALLY****
TOTAL RUN TIME: 0 days 0 hours 0 minutes 23 seconds 600 msec
