                         Program Version 4.2.0 -  RELEASE  -
|  1> #
|  2> # 21_HF tpss/aug-cc-pvt(+d)z
|  3> #
|  4> ! tpss d3bj aug-cc-pvt(+d)z def2/j opt xyzfile numfreq
|  5>
|  6> *xyz 0 1
|  7> F            0.461912633          0.000000024          0.000000002
|  8> H           -0.461912633         -0.000000024         -0.000000002
|  9> *
| 10>
| 11> %pal
| 12> nprocs 24
| 13> end
| 14>
| 15>
| 16>                          ****END OF INPUT****
 Total Charge           Charge          ....    0
 Multiplicity           Mult            ....    1
 Number of Electrons    NEL             ....   10
Dispersion correction           -0.000132102
FINAL SINGLE POINT ENERGY      -100.490829426860
Dispersion correction            ... done
Dispersion correction           -0.000132104
FINAL SINGLE POINT ENERGY      -100.490874922393
Dispersion correction            ... done
Dispersion correction           -0.000132104
FINAL SINGLE POINT ENERGY      -100.490874387317
Dispersion correction            ... done
                    ***********************HURRAY********************

CARTESIAN COORDINATES (ANGSTROEM)
---------------------------------
  F      0.464779    0.000000    0.000000
  H     -0.464779   -0.000000   -0.000000

 Multiplicity           Mult            ....    1
 Number of Electrons    NEL             ....   10
 Basis Dimension        Dim             ....   69

ORBITAL ENERGIES
----------------

  NO   OCC          E(Eh)            E(eV)
   0   2.0000     -24.409298      -664.2108
   1   2.0000      -1.126413       -30.6513
   2   2.0000      -0.498207       -13.5569
   3   2.0000      -0.357123        -9.7178
   4   2.0000      -0.357123        -9.7178
   5   0.0000      -0.031824        -0.8660
   6   0.0000       0.068188         1.8555
   7   0.0000       0.118410         3.2221
   8   0.0000       0.118410         3.2221
   9   0.0000       0.124157         3.3785

MULLIKEN ATOMIC CHARGES
-----------------------
   0 F :   -0.330512
   1 H :    0.330512
Sum of atomic charges:    0.0000000

LOEWDIN ATOMIC CHARGES
----------------------
   0 F :    0.664979
   1 H :   -0.664979

  Mayer bond orders larger than 0.100000
B(  0-F ,  1-H ) :   0.9210

Dispersion correction           -0.000132104
FINAL SINGLE POINT ENERGY      -100.490874373386

DIPOLE MOMENT
-------------
                                X             Y             Z
Electronic contribution:      0.17421       0.00000       0.00000
Nuclear contribution   :     -0.87154      -0.00000      -0.00000
                        -----------------------------------------
Total Dipole Moment    :     -0.69733      -0.00000      -0.00000
                        -----------------------------------------
Magnitude (a.u.)       :      0.69733
Magnitude (Debye)      :      1.77247

VIBRATIONAL FREQUENCIES
-----------------------

Scaling factor for frequencies =  1.000000000 (already applied!)

   0:         0.00 cm**-1
   1:         0.00 cm**-1
   2:         0.00 cm**-1
   3:         0.00 cm**-1
   4:         0.00 cm**-1
   5:      3988.74 cm**-1

IR SPECTRUM
-----------

 Mode    freq (cm**-1)   T**2         TX         TY         TZ
-------------------------------------------------------------------
   5:      3988.74   89.199613  ( -9.444555  -0.000001   0.000001)

--------------------------
THERMOCHEMISTRY AT 298.15K
--------------------------

Temperature         ... 298.15 K
Pressure            ... 1.00 atm
Total Mass          ... 20.01 AMU
The molecule is recognized as being linear

Throughout the following assumptions are being made:
  (1) The electronic state is orbitally nondegenerate
  (2) There are no thermally accessible electronically excited states
  (3) Hindered rotations indicated by low frequency modes are not
      treated as such but are treated as vibrations and this may
      cause some error
  (4) All equations used are the standard statistical mechanics
      equations for an ideal gas
  (5) All vibrations are strictly harmonic

freq.    3988.74  E(vib)   ...       0.00

------------
INNER ENERGY
------------

The inner energy is: U= E(el) + E(ZPE) + E(vib) + E(rot) + E(trans)
    E(el)   - is the total energy from the electronic structure calculation
              = E(kin-el) + E(nuc-el) + E(el-el) + E(nuc-nuc)
    E(ZPE)  - the the zero temperature vibrational energy from the frequency calculation
    E(vib)  - the the finite temperature correction to E(ZPE) due to population
              of excited vibrational states
    E(rot)  - is the rotational thermal energy
    E(trans)- is the translational thermal energy

Summary of contributions to the inner energy U:
Electronic energy                ...   -100.49087438 Eh
Zero point energy                ...      0.00908703 Eh       5.70 kcal/mol
Thermal vibrational correction   ...      0.00000000 Eh       0.00 kcal/mol
Thermal rotational correction    ...      0.00094418 Eh       0.59 kcal/mol
Thermal translational correction ...      0.00141627 Eh       0.89 kcal/mol
-----------------------------------------------------------------------
Total thermal energy                   -100.47942690 Eh

Summary of corrections to the electronic energy:
(perhaps to be used in another calculation)
Total thermal correction                  0.00236045 Eh       1.48 kcal/mol
Non-thermal (ZPE) correction              0.00908703 Eh       5.70 kcal/mol
-----------------------------------------------------------------------
Total correction                          0.01144748 Eh       7.18 kcal/mol

--------
ENTHALPY
--------

The enthalpy is H = U + kB*T
                kB is Boltzmann's constant
Total free energy                 ...   -100.47942690 Eh
Thermal Enthalpy correction       ...      0.00094421 Eh       0.59 kcal/mol
-----------------------------------------------------------------------
Total Enthalpy                    ...   -100.47848269 Eh

Note: Rotational entropy computed according to Herzberg
Infrared and Raman Spectra, Chapter V,1, Van Nostrand Reinhold, 1945
Point Group:  Cinfv, Symmetry Number:   1
Rotational constants in cm-1:     0.000000    20.381477    20.381477

Vibrational entropy computed according to the QRRHO of S. Grimme
Chem.Eur.J. 2012 18 9955

-------
ENTROPY
-------

The entropy contributions are T*S = T*(S(el)+S(vib)+S(rot)+S(trans))
     S(el)   - electronic entropy
     S(vib)  - vibrational entropy
     S(rot)  - rotational entropy
     S(trans)- translational entropy
The entropies will be listed as mutliplied by the temperature to get
units of energy

Electronic entropy                ...      0.00000000 Eh      0.00 kcal/mol
Vibrational entropy               ...     -0.00000000 Eh     -0.00 kcal/mol
Rotational entropy                ...      0.00313391 Eh      1.97 kcal/mol
Translational entropy             ...      0.01659227 Eh     10.41 kcal/mol
-----------------------------------------------------------------------
Final entropy term                ...      0.01972618 Eh     12.38 kcal/mol

In case the symmetry of your molecule has not been determined correctly
or in case you have a reason to use a different symmetry number we print
out the resulting rotational entropy values for sn=1,12 :
 --------------------------------------------------------
|  sn= 1 | S(rot)=      -0.01195865 Eh     -7.50 kcal/mol|
|  sn= 2 | S(rot)=      -0.01261311 Eh     -7.91 kcal/mol|
|  sn= 3 | S(rot)=      -0.01299594 Eh     -8.16 kcal/mol|
|  sn= 4 | S(rot)=      -0.01326756 Eh     -8.33 kcal/mol|
|  sn= 5 | S(rot)=      -0.01347825 Eh     -8.46 kcal/mol|
|  sn= 6 | S(rot)=      -0.01365040 Eh     -8.57 kcal/mol|
|  sn= 7 | S(rot)=      -0.01379594 Eh     -8.66 kcal/mol|
|  sn= 8 | S(rot)=      -0.01392202 Eh     -8.74 kcal/mol|
|  sn= 9 | S(rot)=      -0.01403323 Eh     -8.81 kcal/mol|
|  sn=10 | S(rot)=      -0.01413271 Eh     -8.87 kcal/mol|
|  sn=11 | S(rot)=      -0.01422270 Eh     -8.92 kcal/mol|
|  sn=12 | S(rot)=      -0.01430485 Eh     -8.98 kcal/mol|
 --------------------------------------------------------

-------------------
GIBBS FREE ENERGY
-------------------

The Gibbs free energy is G = H - T*S

Total enthalpy                    ...   -100.47848269 Eh
Total entropy correction          ...     -0.01972618 Eh    -12.38 kcal/mol
-----------------------------------------------------------------------
Final Gibbs free energy         ...   -100.49820886 Eh

For completeness - the Gibbs free energy minus the electronic energy
G-E(el)                           ...     -0.00733449 Eh     -4.60 kcal/mol

                             ****ORCA TERMINATED NORMALLY****
TOTAL RUN TIME: 0 days 0 hours 0 minutes 16 seconds 744 msec
