                         Program Version 4.2.0 -  RELEASE  -
|  1> #
|  2> # 22_HNO tpss/aug-cc-pvt(+d)z
|  3> #
|  4> ! tpss d3bj aug-cc-pvt(+d)z def2/j opt xyzfile numfreq
|  5>
|  6> *xyz 0 1
|  7> N           -0.069457921          0.436213507         -0.000000038
|  8> O            0.951837723         -0.192997589          0.000000094
|  9> H           -0.882379797         -0.243215918         -0.000000056
| 10> *
| 11>
| 12> %pal
| 13> nprocs 24
| 14> end
| 15>
| 16>
| 17>                          ****END OF INPUT****
 Total Charge           Charge          ....    0
 Multiplicity           Mult            ....    1
 Number of Electrons    NEL             ....   16
Dispersion correction           -0.000781935
FINAL SINGLE POINT ENERGY      -130.547084159339
Dispersion correction            ... done
Dispersion correction           -0.000781794
FINAL SINGLE POINT ENERGY      -130.547332016957
Dispersion correction            ... done
Dispersion correction           -0.000781806
FINAL SINGLE POINT ENERGY      -130.547334398128
Dispersion correction            ... done
                    ***********************HURRAY********************

CARTESIAN COORDINATES (ANGSTROEM)
---------------------------------
  N     -0.068405    0.440721   -0.000000
  O      0.961286   -0.194350    0.000000
  H     -0.892881   -0.246371   -0.000000

 Multiplicity           Mult            ....    1
 Number of Electrons    NEL             ....   16
 Basis Dimension        Dim             ....  115

ORBITAL ENERGIES
----------------

  NO   OCC          E(Eh)            E(eV)
   0   2.0000     -18.973550      -516.2966
   1   2.0000     -14.234602      -387.3432
   2   2.0000      -1.107906       -30.1476
   3   2.0000      -0.679274       -18.4840
   4   2.0000      -0.489018       -13.3069
   5   2.0000      -0.431953       -11.7540
   6   2.0000      -0.408426       -11.1138
   7   2.0000      -0.210648        -5.7320
   8   0.0000      -0.155727        -4.2376
   9   0.0000      -0.018953        -0.5157
  10   0.0000       0.037966         1.0331
  11   0.0000       0.055839         1.5195
  12   0.0000       0.062748         1.7075

MULLIKEN ATOMIC CHARGES
-----------------------
   0 N :    0.032962
   1 O :   -0.221270
   2 H :    0.188308
Sum of atomic charges:   -0.0000000

LOEWDIN ATOMIC CHARGES
----------------------
   0 N :    0.170913
   1 O :    0.255807
   2 H :   -0.426720

  Mayer bond orders larger than 0.100000
B(  0-N ,  1-O ) :   1.5771 B(  0-N ,  2-H ) :   0.8689

Dispersion correction           -0.000781810
FINAL SINGLE POINT ENERGY      -130.547333986143

DIPOLE MOMENT
-------------
                                X             Y             Z
Electronic contribution:      0.69178       0.04984       0.00000
Nuclear contribution   :     -1.24171      -0.31860      -0.00000
                        -----------------------------------------
Total Dipole Moment    :     -0.54993      -0.26876      -0.00000
                        -----------------------------------------
Magnitude (a.u.)       :      0.61209
Magnitude (Debye)      :      1.55582

VIBRATIONAL FREQUENCIES
-----------------------

Scaling factor for frequencies =  1.000000000 (already applied!)

   0:         0.00 cm**-1
   1:         0.00 cm**-1
   2:         0.00 cm**-1
   3:         0.00 cm**-1
   4:         0.00 cm**-1
   5:         0.00 cm**-1
   6:      1519.74 cm**-1
   7:      1594.20 cm**-1
   8:      2724.54 cm**-1

IR SPECTRUM
-----------

 Mode    freq (cm**-1)   T**2         TX         TY         TZ
-------------------------------------------------------------------
   6:      1519.74   11.879531  ( -2.732063  -2.101277   0.000003)
   7:      1594.20   84.691331  (  9.145389  -1.026252   0.000004)
   8:      2724.54  202.970927  ( 13.027130   5.767565  -0.000004)

--------------------------
THERMOCHEMISTRY AT 298.15K
--------------------------

Temperature         ... 298.15 K
Pressure            ... 1.00 atm
Total Mass          ... 31.01 AMU

Throughout the following assumptions are being made:
  (1) The electronic state is orbitally nondegenerate
  (2) There are no thermally accessible electronically excited states
  (3) Hindered rotations indicated by low frequency modes are not
      treated as such but are treated as vibrations and this may
      cause some error
  (4) All equations used are the standard statistical mechanics
      equations for an ideal gas
  (5) All vibrations are strictly harmonic

freq.    1519.74  E(vib)   ...       0.00
freq.    1594.20  E(vib)   ...       0.00
freq.    2724.54  E(vib)   ...       0.00

------------
INNER ENERGY
------------

The inner energy is: U= E(el) + E(ZPE) + E(vib) + E(rot) + E(trans)
    E(el)   - is the total energy from the electronic structure calculation
              = E(kin-el) + E(nuc-el) + E(el-el) + E(nuc-nuc)
    E(ZPE)  - the the zero temperature vibrational energy from the frequency calculation
    E(vib)  - the the finite temperature correction to E(ZPE) due to population
              of excited vibrational states
    E(rot)  - is the rotational thermal energy
    E(trans)- is the translational thermal energy

Summary of contributions to the inner energy U:
Electronic energy                ...   -130.54733398 Eh
Zero point energy                ...      0.01330103 Eh       8.35 kcal/mol
Thermal vibrational correction   ...      0.00000786 Eh       0.00 kcal/mol
Thermal rotational correction    ...      0.00141627 Eh       0.89 kcal/mol
Thermal translational correction ...      0.00141627 Eh       0.89 kcal/mol
-----------------------------------------------------------------------
Total thermal energy                   -130.53119255 Eh

Summary of corrections to the electronic energy:
(perhaps to be used in another calculation)
Total thermal correction                  0.00284041 Eh       1.78 kcal/mol
Non-thermal (ZPE) correction              0.01330103 Eh       8.35 kcal/mol
-----------------------------------------------------------------------
Total correction                          0.01614144 Eh      10.13 kcal/mol

--------
ENTHALPY
--------

The enthalpy is H = U + kB*T
                kB is Boltzmann's constant
Total free energy                 ...   -130.53119255 Eh
Thermal Enthalpy correction       ...      0.00094421 Eh       0.59 kcal/mol
-----------------------------------------------------------------------
Total Enthalpy                    ...   -130.53024834 Eh

Note: Rotational entropy computed according to Herzberg
Infrared and Raman Spectra, Chapter V,1, Van Nostrand Reinhold, 1945
Point Group:  Cs, Symmetry Number:   1
Rotational constants in cm-1:    18.274163     1.408750     1.307923

Vibrational entropy computed according to the QRRHO of S. Grimme
Chem.Eur.J. 2012 18 9955

-------
ENTROPY
-------

The entropy contributions are T*S = T*(S(el)+S(vib)+S(rot)+S(trans))
     S(el)   - electronic entropy
     S(vib)  - vibrational entropy
     S(rot)  - rotational entropy
     S(trans)- translational entropy
The entropies will be listed as mutliplied by the temperature to get
units of energy

Electronic entropy                ...      0.00000000 Eh      0.00 kcal/mol
Vibrational entropy               ...      0.00000892 Eh      0.01 kcal/mol
Rotational entropy                ...      0.00785064 Eh      4.93 kcal/mol
Translational entropy             ...      0.01721317 Eh     10.80 kcal/mol
-----------------------------------------------------------------------
Final entropy term                ...      0.02507273 Eh     15.73 kcal/mol

In case the symmetry of your molecule has not been determined correctly
or in case you have a reason to use a different symmetry number we print
out the resulting rotational entropy values for sn=1,12 :
 --------------------------------------------------------
|  sn= 1 | S(rot)=       0.00785064 Eh      4.93 kcal/mol|
|  sn= 2 | S(rot)=       0.00719619 Eh      4.52 kcal/mol|
|  sn= 3 | S(rot)=       0.00681335 Eh      4.28 kcal/mol|
|  sn= 4 | S(rot)=       0.00654173 Eh      4.10 kcal/mol|
|  sn= 5 | S(rot)=       0.00633104 Eh      3.97 kcal/mol|
|  sn= 6 | S(rot)=       0.00615890 Eh      3.86 kcal/mol|
|  sn= 7 | S(rot)=       0.00601335 Eh      3.77 kcal/mol|
|  sn= 8 | S(rot)=       0.00588727 Eh      3.69 kcal/mol|
|  sn= 9 | S(rot)=       0.00577606 Eh      3.62 kcal/mol|
|  sn=10 | S(rot)=       0.00567658 Eh      3.56 kcal/mol|
|  sn=11 | S(rot)=       0.00558659 Eh      3.51 kcal/mol|
|  sn=12 | S(rot)=       0.00550444 Eh      3.45 kcal/mol|
 --------------------------------------------------------

-------------------
GIBBS FREE ENERGY
-------------------

The Gibbs free energy is G = H - T*S

Total enthalpy                    ...   -130.53024834 Eh
Total entropy correction          ...     -0.02507273 Eh    -15.73 kcal/mol
-----------------------------------------------------------------------
Final Gibbs free energy         ...   -130.55532106 Eh

For completeness - the Gibbs free energy minus the electronic energy
G-E(el)                           ...     -0.00798708 Eh     -5.01 kcal/mol

                             ****ORCA TERMINATED NORMALLY****
TOTAL RUN TIME: 0 days 0 hours 0 minutes 24 seconds 334 msec
