                         Program Version 4.2.0 -  RELEASE  -
|  1> #
|  2> # 23_HOCl tpss/aug-cc-pvt(+d)z
|  3> #
|  4> ! tpss d3bj aug-cc-pvt(+d)z def2/j opt xyzfile numfreq
|  5>
|  6> *xyz 0 1
|  7> O           -0.345461674          0.464587564          0.000000200
|  8> Cl           1.234116896         -0.128671365         -0.000000477
|  9> H           -0.888655222         -0.335916194          0.000000276
| 10> *
| 11>
| 12> %pal
| 13> nprocs 24
| 14> end
| 15>
| 16>
| 17>                          ****END OF INPUT****
 Total Charge           Charge          ....    0
 Multiplicity           Mult            ....    1
 Number of Electrons    NEL             ....   26
Dispersion correction           -0.001126570
FINAL SINGLE POINT ENERGY      -536.046343604547
Dispersion correction            ... done
Dispersion correction           -0.001126021
FINAL SINGLE POINT ENERGY      -536.046620114059
Dispersion correction            ... done
Dispersion correction           -0.001125822
FINAL SINGLE POINT ENERGY      -536.046690350830
Dispersion correction            ... done
Dispersion correction           -0.001125892
FINAL SINGLE POINT ENERGY      -536.046695465691
Dispersion correction            ... done
Dispersion correction           -0.001125961
FINAL SINGLE POINT ENERGY      -536.046695522773
Dispersion correction            ... done
                    ***********************HURRAY********************

CARTESIAN COORDINATES (ANGSTROEM)
---------------------------------
  O     -0.357139    0.476220    0.000000
  Cl     1.245797   -0.134907   -0.000000
  H     -0.888658   -0.341313    0.000000

 Multiplicity           Mult            ....    1
 Number of Electrons    NEL             ....   26
 Basis Dimension        Dim             ....  124

ORBITAL ENERGIES
----------------

  NO   OCC          E(Eh)            E(eV)
   0   2.0000    -101.068673     -2750.2184
   1   2.0000     -18.963665      -516.0276
   2   2.0000      -9.291228      -252.8272
   3   2.0000      -7.077804      -192.5968
   4   2.0000      -7.060637      -192.1297
   5   2.0000      -7.060193      -192.1176
   6   2.0000      -1.004163       -27.3247
   7   2.0000      -0.747441       -20.3389
   8   2.0000      -0.491505       -13.3745
   9   2.0000      -0.409576       -11.1451
  10   2.0000      -0.366633        -9.9766
  11   2.0000      -0.287309        -7.8181
  12   2.0000      -0.250817        -6.8251
  13   0.0000      -0.120545        -3.2802
  14   0.0000      -0.019842        -0.5399
  15   0.0000       0.044534         1.2118
  16   0.0000       0.054472         1.4823
  17   0.0000       0.057846         1.5741

MULLIKEN ATOMIC CHARGES
-----------------------
   0 O :   -0.364008
   1 Cl:    0.143166
   2 H :    0.220842
Sum of atomic charges:    0.0000000

LOEWDIN ATOMIC CHARGES
----------------------
   0 O :    0.219939
   1 Cl:    0.468952
   2 H :   -0.688890

  Mayer bond orders larger than 0.100000
B(  0-O ,  1-Cl) :   0.9353 B(  0-O ,  2-H ) :   0.9690

Dispersion correction           -0.001125978
FINAL SINGLE POINT ENERGY      -536.046695490059

DIPOLE MOMENT
-------------
                                X             Y             Z
Electronic contribution:      1.88673      -0.36878      -0.00000
Nuclear contribution   :     -2.23245      -0.11360       0.00000
                        -----------------------------------------
Total Dipole Moment    :     -0.34572      -0.48238       0.00000
                        -----------------------------------------
Magnitude (a.u.)       :      0.59348
Magnitude (Debye)      :      1.50850

VIBRATIONAL FREQUENCIES
-----------------------

Scaling factor for frequencies =  1.000000000 (already applied!)

   0:         0.00 cm**-1
   1:         0.00 cm**-1
   2:         0.00 cm**-1
   3:         0.00 cm**-1
   4:         0.00 cm**-1
   5:         0.00 cm**-1
   6:       717.26 cm**-1
   7:      1240.73 cm**-1
   8:      3656.95 cm**-1

IR SPECTRUM
-----------

 Mode    freq (cm**-1)   T**2         TX         TY         TZ
-------------------------------------------------------------------
   6:       717.26    7.547615  ( -2.633443   0.782682   0.000001)
   7:      1240.73   43.706822  (  5.963792  -2.853069  -0.000001)
   8:      3656.95   61.458047  ( -6.987998  -3.553299   0.000001)

--------------------------
THERMOCHEMISTRY AT 298.15K
--------------------------

Temperature         ... 298.15 K
Pressure            ... 1.00 atm
Total Mass          ... 52.46 AMU

Throughout the following assumptions are being made:
  (1) The electronic state is orbitally nondegenerate
  (2) There are no thermally accessible electronically excited states
  (3) Hindered rotations indicated by low frequency modes are not
      treated as such but are treated as vibrations and this may
      cause some error
  (4) All equations used are the standard statistical mechanics
      equations for an ideal gas
  (5) All vibrations are strictly harmonic

freq.     717.26  E(vib)   ...       0.07
freq.    1240.73  E(vib)   ...       0.01
freq.    3656.95  E(vib)   ...       0.00

------------
INNER ENERGY
------------

The inner energy is: U= E(el) + E(ZPE) + E(vib) + E(rot) + E(trans)
    E(el)   - is the total energy from the electronic structure calculation
              = E(kin-el) + E(nuc-el) + E(el-el) + E(nuc-nuc)
    E(ZPE)  - the the zero temperature vibrational energy from the frequency calculation
    E(vib)  - the the finite temperature correction to E(ZPE) due to population
              of excited vibrational states
    E(rot)  - is the rotational thermal energy
    E(trans)- is the translational thermal energy

Summary of contributions to the inner energy U:
Electronic energy                ...   -536.04669550 Eh
Zero point energy                ...      0.01279177 Eh       8.03 kcal/mol
Thermal vibrational correction   ...      0.00012015 Eh       0.08 kcal/mol
Thermal rotational correction    ...      0.00141627 Eh       0.89 kcal/mol
Thermal translational correction ...      0.00141627 Eh       0.89 kcal/mol
-----------------------------------------------------------------------
Total thermal energy                   -536.03095103 Eh

Summary of corrections to the electronic energy:
(perhaps to be used in another calculation)
Total thermal correction                  0.00295269 Eh       1.85 kcal/mol
Non-thermal (ZPE) correction              0.01279177 Eh       8.03 kcal/mol
-----------------------------------------------------------------------
Total correction                          0.01574446 Eh       9.88 kcal/mol

--------
ENTHALPY
--------

The enthalpy is H = U + kB*T
                kB is Boltzmann's constant
Total free energy                 ...   -536.03095103 Eh
Thermal Enthalpy correction       ...      0.00094421 Eh       0.59 kcal/mol
-----------------------------------------------------------------------
Total Enthalpy                    ...   -536.03000683 Eh

Note: Rotational entropy computed according to Herzberg
Infrared and Raman Spectra, Chapter V,1, Van Nostrand Reinhold, 1945
Point Group:  Cs, Symmetry Number:   1
Rotational constants in cm-1:    19.895414     0.490093     0.478310

Vibrational entropy computed according to the QRRHO of S. Grimme
Chem.Eur.J. 2012 18 9955

-------
ENTROPY
-------

The entropy contributions are T*S = T*(S(el)+S(vib)+S(rot)+S(trans))
     S(el)   - electronic entropy
     S(vib)  - vibrational entropy
     S(rot)  - rotational entropy
     S(trans)- translational entropy
The entropies will be listed as mutliplied by the temperature to get
units of energy

Electronic entropy                ...      0.00000000 Eh      0.00 kcal/mol
Vibrational entropy               ...      0.00015275 Eh      0.10 kcal/mol
Rotational entropy                ...      0.00878387 Eh      5.51 kcal/mol
Translational entropy             ...      0.01795758 Eh     11.27 kcal/mol
-----------------------------------------------------------------------
Final entropy term                ...      0.02689420 Eh     16.88 kcal/mol

In case the symmetry of your molecule has not been determined correctly
or in case you have a reason to use a different symmetry number we print
out the resulting rotational entropy values for sn=1,12 :
 --------------------------------------------------------
|  sn= 1 | S(rot)=       0.00878387 Eh      5.51 kcal/mol|
|  sn= 2 | S(rot)=       0.00812941 Eh      5.10 kcal/mol|
|  sn= 3 | S(rot)=       0.00774658 Eh      4.86 kcal/mol|
|  sn= 4 | S(rot)=       0.00747496 Eh      4.69 kcal/mol|
|  sn= 5 | S(rot)=       0.00726427 Eh      4.56 kcal/mol|
|  sn= 6 | S(rot)=       0.00709212 Eh      4.45 kcal/mol|
|  sn= 7 | S(rot)=       0.00694658 Eh      4.36 kcal/mol|
|  sn= 8 | S(rot)=       0.00682050 Eh      4.28 kcal/mol|
|  sn= 9 | S(rot)=       0.00670929 Eh      4.21 kcal/mol|
|  sn=10 | S(rot)=       0.00660981 Eh      4.15 kcal/mol|
|  sn=11 | S(rot)=       0.00651982 Eh      4.09 kcal/mol|
|  sn=12 | S(rot)=       0.00643767 Eh      4.04 kcal/mol|
 --------------------------------------------------------

-------------------
GIBBS FREE ENERGY
-------------------

The Gibbs free energy is G = H - T*S

Total enthalpy                    ...   -536.03000683 Eh
Total entropy correction          ...     -0.02689420 Eh    -16.88 kcal/mol
-----------------------------------------------------------------------
Final Gibbs free energy         ...   -536.05690102 Eh

For completeness - the Gibbs free energy minus the electronic energy
G-E(el)                           ...     -0.01020553 Eh     -6.40 kcal/mol

                             ****ORCA TERMINATED NORMALLY****
TOTAL RUN TIME: 0 days 0 hours 0 minutes 32 seconds 98 msec
