                         Program Version 4.2.0 -  RELEASE  -
|  1> #
|  2> # 25_NH3 tpss/aug-cc-pvt(+d)z
|  3> #
|  4> ! tpss d3bj aug-cc-pvt(+d)z def2/j opt xyzfile numfreq
|  5>
|  6> *xyz 0 1
|  7> N           -0.002380744         -0.000680215          0.281658228
|  8> H           -0.519925577         -0.785969146         -0.100203124
|  9> H           -0.419725272          0.844282023         -0.095448346
| 10> H            0.942031593         -0.057632663         -0.086006759
| 11> *
| 12>
| 13> %pal
| 14> nprocs 24
| 15> end
| 16>
| 17>
| 18>                          ****END OF INPUT****
 Total Charge           Charge          ....    0
 Multiplicity           Mult            ....    1
 Number of Electrons    NEL             ....   10
Dispersion correction           -0.000893320
FINAL SINGLE POINT ENERGY       -56.590220054677
Dispersion correction            ... done
Dispersion correction           -0.000893336
FINAL SINGLE POINT ENERGY       -56.590271415786
Dispersion correction            ... done
Dispersion correction           -0.000893421
FINAL SINGLE POINT ENERGY       -56.590279458894
Dispersion correction            ... done
Dispersion correction           -0.000893444
FINAL SINGLE POINT ENERGY       -56.590274898135
Dispersion correction            ... done
                    ***********************HURRAY********************

CARTESIAN COORDINATES (ANGSTROEM)
---------------------------------
  N     -0.002484   -0.000760    0.297631
  H     -0.517828   -0.783098   -0.105499
  H     -0.417976    0.841224   -0.100778
  H      0.938289   -0.057365   -0.091354

 Multiplicity           Mult            ....    1
 Number of Electrons    NEL             ....   10
 Basis Dimension        Dim             ....  115

ORBITAL ENERGIES
----------------

  NO   OCC          E(Eh)            E(eV)
   0   2.0000     -14.086115      -383.3027
   1   2.0000      -0.795432       -21.6448
   2   2.0000      -0.417934       -11.3726
   3   2.0000      -0.417820       -11.3695
   4   2.0000      -0.231835        -6.3086
   5   0.0000      -0.021990        -0.5984
   6   0.0000       0.022407         0.6097
   7   0.0000       0.022727         0.6184
   8   0.0000       0.065534         1.7833
   9   0.0000       0.085584         2.3288

MULLIKEN ATOMIC CHARGES
-----------------------
   0 N :   -0.319432
   1 H :    0.101306
   2 H :    0.102891
   3 H :    0.115234
Sum of atomic charges:    0.0000000

LOEWDIN ATOMIC CHARGES
----------------------
   0 N :    1.074338
   1 H :   -0.358191
   2 H :   -0.357775
   3 H :   -0.358371

  Mayer bond orders larger than 0.100000
B(  0-N ,  1-H ) :   0.9654 B(  0-N ,  2-H ) :   0.9622 B(  0-N ,  3-H ) :   0.9415

Dispersion correction           -0.000893445
FINAL SINGLE POINT ENERGY       -56.590274724487

DIPOLE MOMENT
-------------
                                X             Y             Z
Electronic contribution:     -0.00309      -0.00037       0.31076
Nuclear contribution   :      0.00766       0.00235      -0.91822
                        -----------------------------------------
Total Dipole Moment    :      0.00458       0.00198      -0.60746
                        -----------------------------------------
Magnitude (a.u.)       :      0.60748
Magnitude (Debye)      :      1.54409

VIBRATIONAL FREQUENCIES
-----------------------

Scaling factor for frequencies =  1.000000000 (already applied!)

   0:         0.00 cm**-1
   1:         0.00 cm**-1
   2:         0.00 cm**-1
   3:         0.00 cm**-1
   4:         0.00 cm**-1
   5:         0.00 cm**-1
   6:      1086.20 cm**-1
   7:      1662.36 cm**-1
   8:      1663.14 cm**-1
   9:      3390.46 cm**-1
  10:      3504.89 cm**-1
  11:      3506.30 cm**-1

IR SPECTRUM
-----------

 Mode    freq (cm**-1)   T**2         TX         TY         TZ
-------------------------------------------------------------------
   6:      1086.20  102.780084  ( -0.190777  -0.046446  10.136150)
   7:      1662.36   12.847561  ( -2.320788   2.731505   0.019615)
   8:      1663.14   12.984041  (  2.794065   2.275345   0.006823)
   9:      3390.46    7.076818  (  0.018891  -0.086112   2.658768)
  10:      3504.89    0.589851  (  0.124986  -0.757778   0.001438)
  11:      3506.30    0.336280  ( -0.562986  -0.114767   0.078458)

--------------------------
THERMOCHEMISTRY AT 298.15K
--------------------------

Temperature         ... 298.15 K
Pressure            ... 1.00 atm
Total Mass          ... 17.03 AMU

Throughout the following assumptions are being made:
  (1) The electronic state is orbitally nondegenerate
  (2) There are no thermally accessible electronically excited states
  (3) Hindered rotations indicated by low frequency modes are not
      treated as such but are treated as vibrations and this may
      cause some error
  (4) All equations used are the standard statistical mechanics
      equations for an ideal gas
  (5) All vibrations are strictly harmonic

freq.    1086.20  E(vib)   ...       0.02
freq.    1662.36  E(vib)   ...       0.00
freq.    1663.14  E(vib)   ...       0.00
freq.    3390.46  E(vib)   ...       0.00
freq.    3504.89  E(vib)   ...       0.00
freq.    3506.30  E(vib)   ...       0.00

------------
INNER ENERGY
------------

The inner energy is: U= E(el) + E(ZPE) + E(vib) + E(rot) + E(trans)
    E(el)   - is the total energy from the electronic structure calculation
              = E(kin-el) + E(nuc-el) + E(el-el) + E(nuc-nuc)
    E(ZPE)  - the the zero temperature vibrational energy from the frequency calculation
    E(vib)  - the the finite temperature correction to E(ZPE) due to population
              of excited vibrational states
    E(rot)  - is the rotational thermal energy
    E(trans)- is the translational thermal energy

Summary of contributions to the inner energy U:
Electronic energy                ...    -56.59027473 Eh
Zero point energy                ...      0.03374731 Eh      21.18 kcal/mol
Thermal vibrational correction   ...      0.00003130 Eh       0.02 kcal/mol
Thermal rotational correction    ...      0.00141627 Eh       0.89 kcal/mol
Thermal translational correction ...      0.00141627 Eh       0.89 kcal/mol
-----------------------------------------------------------------------
Total thermal energy                    -56.55366358 Eh

Summary of corrections to the electronic energy:
(perhaps to be used in another calculation)
Total thermal correction                  0.00286384 Eh       1.80 kcal/mol
Non-thermal (ZPE) correction              0.03374731 Eh      21.18 kcal/mol
-----------------------------------------------------------------------
Total correction                          0.03661115 Eh      22.97 kcal/mol

--------
ENTHALPY
--------

The enthalpy is H = U + kB*T
                kB is Boltzmann's constant
Total free energy                 ...    -56.55366358 Eh
Thermal Enthalpy correction       ...      0.00094421 Eh       0.59 kcal/mol
-----------------------------------------------------------------------
Total Enthalpy                    ...    -56.55271937 Eh

Note: Only C1 symmetry has been detected, increase convergence thresholds
      if your molecule has a higher symmetry. Symmetry factor of 1.0 is
      used for the rotational entropy correction.

Note: Rotational entropy computed according to Herzberg
Infrared and Raman Spectra, Chapter V,1, Van Nostrand Reinhold, 1945
Point Group:  C1, Symmetry Number:   1
Rotational constants in cm-1:     9.769120     9.764034     6.316781

Vibrational entropy computed according to the QRRHO of S. Grimme
Chem.Eur.J. 2012 18 9955

-------
ENTROPY
-------

The entropy contributions are T*S = T*(S(el)+S(vib)+S(rot)+S(trans))
     S(el)   - electronic entropy
     S(vib)  - vibrational entropy
     S(rot)  - rotational entropy
     S(trans)- translational entropy
The entropies will be listed as mutliplied by the temperature to get
units of energy

Electronic entropy                ...      0.00000000 Eh      0.00 kcal/mol
Vibrational entropy               ...      0.00003694 Eh      0.02 kcal/mol
Rotational entropy                ...      0.00648889 Eh      4.07 kcal/mol
Translational entropy             ...      0.01636425 Eh     10.27 kcal/mol
-----------------------------------------------------------------------
Final entropy term                ...      0.02289008 Eh     14.36 kcal/mol

In case the symmetry of your molecule has not been determined correctly
or in case you have a reason to use a different symmetry number we print
out the resulting rotational entropy values for sn=1,12 :
 --------------------------------------------------------
|  sn= 1 | S(rot)=       0.00648889 Eh      4.07 kcal/mol|
|  sn= 2 | S(rot)=       0.00583444 Eh      3.66 kcal/mol|
|  sn= 3 | S(rot)=       0.00545160 Eh      3.42 kcal/mol|
|  sn= 4 | S(rot)=       0.00517998 Eh      3.25 kcal/mol|
|  sn= 5 | S(rot)=       0.00496929 Eh      3.12 kcal/mol|
|  sn= 6 | S(rot)=       0.00479715 Eh      3.01 kcal/mol|
|  sn= 7 | S(rot)=       0.00465160 Eh      2.92 kcal/mol|
|  sn= 8 | S(rot)=       0.00452552 Eh      2.84 kcal/mol|
|  sn= 9 | S(rot)=       0.00441431 Eh      2.77 kcal/mol|
|  sn=10 | S(rot)=       0.00431484 Eh      2.71 kcal/mol|
|  sn=11 | S(rot)=       0.00422485 Eh      2.65 kcal/mol|
|  sn=12 | S(rot)=       0.00414269 Eh      2.60 kcal/mol|
 --------------------------------------------------------

-------------------
GIBBS FREE ENERGY
-------------------

The Gibbs free energy is G = H - T*S

Total enthalpy                    ...    -56.55271937 Eh
Total entropy correction          ...     -0.02289008 Eh    -14.36 kcal/mol
-----------------------------------------------------------------------
Final Gibbs free energy         ...    -56.57560945 Eh

For completeness - the Gibbs free energy minus the electronic energy
G-E(el)                           ...      0.01466528 Eh      9.20 kcal/mol

                             ****ORCA TERMINATED NORMALLY****
TOTAL RUN TIME: 0 days 0 hours 0 minutes 28 seconds 763 msec
