                         Program Version 4.2.0 -  RELEASE  -
|  1> #
|  2> # 26_N2O tpss/aug-cc-pvt(+d)z
|  3> #
|  4> ! tpss d3bj aug-cc-pvt(+d)z def2/j opt xyzfile numfreq
|  5>
|  6> *xyz 0 1
|  7> N           -0.000000050          0.000000033         -1.122425998
|  8> N           -0.000000002          0.000000001         -0.001729371
|  9> O            0.000000052         -0.000000034          1.183155373
| 10> *
| 11>
| 12> %pal
| 13> nprocs 24
| 14> end
| 15>
| 16>
| 17>                          ****END OF INPUT****
 Total Charge           Charge          ....    0
 Multiplicity           Mult            ....    1
 Number of Electrons    NEL             ....   22
Dispersion correction           -0.001267728
FINAL SINGLE POINT ENERGY      -184.775734616500
Dispersion correction            ... done
Dispersion correction           -0.001266554
FINAL SINGLE POINT ENERGY      -184.776227892961
Dispersion correction            ... done
Dispersion correction           -0.001266428
FINAL SINGLE POINT ENERGY      -184.776229536360
Dispersion correction            ... done
                    ***********************HURRAY********************

CARTESIAN COORDINATES (ANGSTROEM)
---------------------------------
  N     -0.000000    0.000000   -1.134214
  N      0.000000   -0.000000    0.000738
  O      0.000000   -0.000000    1.192476

 Multiplicity           Mult            ....    1
 Number of Electrons    NEL             ....   22
 Basis Dimension        Dim             ....  138

ORBITAL ENERGIES
----------------

  NO   OCC          E(Eh)            E(eV)
   0   2.0000     -18.989679      -516.7354
   1   2.0000     -14.320690      -389.6858
   2   2.0000     -14.197716      -386.3395
   3   2.0000      -1.168332       -31.7919
   4   2.0000      -1.013564       -27.5805
   5   2.0000      -0.560629       -15.2555
   6   2.0000      -0.513719       -13.9790
   7   2.0000      -0.513719       -13.9790
   8   2.0000      -0.433150       -11.7866
   9   2.0000      -0.309844        -8.4313
  10   2.0000      -0.309844        -8.4313
  11   0.0000      -0.056490        -1.5372
  12   0.0000      -0.056490        -1.5372
  13   0.0000      -0.009786        -0.2663
  14   0.0000       0.045722         1.2442
  15   0.0000       0.062326         1.6960

MULLIKEN ATOMIC CHARGES
-----------------------
   0 N :   -0.441948
   1 N :    0.834246
   2 O :   -0.392298
Sum of atomic charges:   -0.0000000

LOEWDIN ATOMIC CHARGES
----------------------
   0 N :    0.198607
   1 N :   -0.497866
   2 O :    0.299259

  Mayer bond orders larger than 0.100000
B(  0-N ,  1-N ) :   1.5624 B(  0-N ,  2-O ) :   0.5179 B(  1-N ,  2-O ) :   1.3856

Dispersion correction           -0.001266417
FINAL SINGLE POINT ENERGY      -184.776229290198

DIPOLE MOMENT
-------------
                                X             Y             Z
Electronic contribution:      0.00000      -0.00000       0.02164
Nuclear contribution   :      0.00000      -0.00000       0.00952
                        -----------------------------------------
Total Dipole Moment    :      0.00000      -0.00000       0.03116
                        -----------------------------------------
Magnitude (a.u.)       :      0.03116
Magnitude (Debye)      :      0.07920

VIBRATIONAL FREQUENCIES
-----------------------

Scaling factor for frequencies =  1.000000000 (already applied!)

   0:         0.00 cm**-1
   1:         0.00 cm**-1
   2:         0.00 cm**-1
   3:         0.00 cm**-1
   4:         0.00 cm**-1
   5:       595.53 cm**-1
   6:       595.54 cm**-1
   7:      1285.19 cm**-1
   8:      2264.85 cm**-1

IR SPECTRUM
-----------

 Mode    freq (cm**-1)   T**2         TX         TY         TZ
-------------------------------------------------------------------
   5:       595.53    3.002739  (  1.238610   1.211852  -0.000003)
   6:       595.54    3.002728  ( -1.211858   1.238600   0.000001)
   7:      1285.19   50.641778  (  0.000001   0.000000   7.116304)
   8:      2264.85  330.455798  (  0.000001  -0.000001  18.178443)

--------------------------
THERMOCHEMISTRY AT 298.15K
--------------------------

Temperature         ... 298.15 K
Pressure            ... 1.00 atm
Total Mass          ... 44.01 AMU
The molecule is recognized as being linear

Throughout the following assumptions are being made:
  (1) The electronic state is orbitally nondegenerate
  (2) There are no thermally accessible electronically excited states
  (3) Hindered rotations indicated by low frequency modes are not
      treated as such but are treated as vibrations and this may
      cause some error
  (4) All equations used are the standard statistical mechanics
      equations for an ideal gas
  (5) All vibrations are strictly harmonic

freq.     595.53  E(vib)   ...       0.10
freq.     595.54  E(vib)   ...       0.10
freq.    1285.19  E(vib)   ...       0.01
freq.    2264.85  E(vib)   ...       0.00

------------
INNER ENERGY
------------

The inner energy is: U= E(el) + E(ZPE) + E(vib) + E(rot) + E(trans)
    E(el)   - is the total energy from the electronic structure calculation
              = E(kin-el) + E(nuc-el) + E(el-el) + E(nuc-nuc)
    E(ZPE)  - the the zero temperature vibrational energy from the frequency calculation
    E(vib)  - the the finite temperature correction to E(ZPE) due to population
              of excited vibrational states
    E(rot)  - is the rotational thermal energy
    E(trans)- is the translational thermal energy

Summary of contributions to the inner energy U:
Electronic energy                ...   -184.77622929 Eh
Zero point energy                ...      0.01080105 Eh       6.78 kcal/mol
Thermal vibrational correction   ...      0.00033696 Eh       0.21 kcal/mol
Thermal rotational correction    ...      0.00094418 Eh       0.59 kcal/mol
Thermal translational correction ...      0.00141627 Eh       0.89 kcal/mol
-----------------------------------------------------------------------
Total thermal energy                   -184.76273083 Eh

Summary of corrections to the electronic energy:
(perhaps to be used in another calculation)
Total thermal correction                  0.00269741 Eh       1.69 kcal/mol
Non-thermal (ZPE) correction              0.01080105 Eh       6.78 kcal/mol
-----------------------------------------------------------------------
Total correction                          0.01349846 Eh       8.47 kcal/mol

--------
ENTHALPY
--------

The enthalpy is H = U + kB*T
                kB is Boltzmann's constant
Total free energy                 ...   -184.76273083 Eh
Thermal Enthalpy correction       ...      0.00094421 Eh       0.59 kcal/mol
-----------------------------------------------------------------------
Total Enthalpy                    ...   -184.76178662 Eh

Note: Rotational entropy computed according to Herzberg
Infrared and Raman Spectra, Chapter V,1, Van Nostrand Reinhold, 1945
Point Group:  Cinfv, Symmetry Number:   1
Rotational constants in cm-1:     0.000000     0.415860     0.415860

Vibrational entropy computed according to the QRRHO of S. Grimme
Chem.Eur.J. 2012 18 9955

-------
ENTROPY
-------

The entropy contributions are T*S = T*(S(el)+S(vib)+S(rot)+S(trans))
     S(el)   - electronic entropy
     S(vib)  - vibrational entropy
     S(rot)  - rotational entropy
     S(trans)- translational entropy
The entropies will be listed as mutliplied by the temperature to get
units of energy

Electronic entropy                ...      0.00000000 Eh      0.00 kcal/mol
Vibrational entropy               ...      0.00044915 Eh      0.28 kcal/mol
Rotational entropy                ...      0.00680869 Eh      4.27 kcal/mol
Translational entropy             ...      0.01770893 Eh     11.11 kcal/mol
-----------------------------------------------------------------------
Final entropy term                ...      0.02496677 Eh     15.67 kcal/mol

In case the symmetry of your molecule has not been determined correctly
or in case you have a reason to use a different symmetry number we print
out the resulting rotational entropy values for sn=1,12 :
 --------------------------------------------------------
|  sn= 1 | S(rot)=      -0.00795909 Eh     -4.99 kcal/mol|
|  sn= 2 | S(rot)=      -0.00861355 Eh     -5.41 kcal/mol|
|  sn= 3 | S(rot)=      -0.00899638 Eh     -5.65 kcal/mol|
|  sn= 4 | S(rot)=      -0.00926801 Eh     -5.82 kcal/mol|
|  sn= 5 | S(rot)=      -0.00947869 Eh     -5.95 kcal/mol|
|  sn= 6 | S(rot)=      -0.00965084 Eh     -6.06 kcal/mol|
|  sn= 7 | S(rot)=      -0.00979638 Eh     -6.15 kcal/mol|
|  sn= 8 | S(rot)=      -0.00992246 Eh     -6.23 kcal/mol|
|  sn= 9 | S(rot)=      -0.01003367 Eh     -6.30 kcal/mol|
|  sn=10 | S(rot)=      -0.01013315 Eh     -6.36 kcal/mol|
|  sn=11 | S(rot)=      -0.01022314 Eh     -6.42 kcal/mol|
|  sn=12 | S(rot)=      -0.01030530 Eh     -6.47 kcal/mol|
 --------------------------------------------------------

-------------------
GIBBS FREE ENERGY
-------------------

The Gibbs free energy is G = H - T*S

Total enthalpy                    ...   -184.76178662 Eh
Total entropy correction          ...     -0.02496677 Eh    -15.67 kcal/mol
-----------------------------------------------------------------------
Final Gibbs free energy         ...   -184.78675339 Eh

For completeness - the Gibbs free energy minus the electronic energy
G-E(el)                           ...     -0.01052410 Eh     -6.60 kcal/mol

                             ****ORCA TERMINATED NORMALLY****
TOTAL RUN TIME: 0 days 0 hours 0 minutes 29 seconds 56 msec
