                         Program Version 4.2.0 -  RELEASE  -
|  1> #
|  2> # 27_OCS tpss/aug-cc-pvt(+d)z
|  3> #
|  4> ! tpss d3bj aug-cc-pvt(+d)z def2/j opt xyzfile numfreq
|  5>
|  6> *xyz 0 1
|  7> O            0.000000135         -0.000000067         -1.270762684
|  8> C            0.000000037         -0.000000044         -0.116817432
|  9> S           -0.000000173          0.000000112          1.446580115
| 10> *
| 11>
| 12> %pal
| 13> nprocs 24
| 14> end
| 15>
| 16>
| 17>                          ****END OF INPUT****
 Total Charge           Charge          ....    0
 Multiplicity           Mult            ....    1
 Number of Electrons    NEL             ....   30
Dispersion correction           -0.002097055
FINAL SINGLE POINT ENERGY      -511.649389060089
Dispersion correction            ... done
Dispersion correction           -0.002094879
FINAL SINGLE POINT ENERGY      -511.649698193872
Dispersion correction            ... done
Dispersion correction           -0.002094307
FINAL SINGLE POINT ENERGY      -511.649708783806
Dispersion correction            ... done
                    ***********************HURRAY********************

CARTESIAN COORDINATES (ANGSTROEM)
---------------------------------
  O      0.000000   -0.000000   -1.280811
  C      0.000000   -0.000000   -0.113671
  S     -0.000000    0.000000    1.453482

 Multiplicity           Mult            ....    1
 Number of Electrons    NEL             ....   30
 Basis Dimension        Dim             ....  147

ORBITAL ENERGIES
----------------

  NO   OCC          E(Eh)            E(eV)
   0   2.0000     -88.423628     -2406.1292
   1   2.0000     -18.970609      -516.2165
   2   2.0000     -10.142745      -275.9981
   3   2.0000      -7.779909      -211.7021
   4   2.0000      -5.762343      -156.8013
   5   2.0000      -5.755069      -156.6034
   6   2.0000      -5.755069      -156.6034
   7   2.0000      -1.067466       -29.0472
   8   2.0000      -0.765319       -20.8254
   9   2.0000      -0.504178       -13.7194
  10   2.0000      -0.433714       -11.8020
  11   2.0000      -0.431973       -11.7546
  12   2.0000      -0.431973       -11.7546
  13   2.0000      -0.278111        -7.5678
  14   2.0000      -0.278111        -7.5678
  15   0.0000      -0.069866        -1.9012
  16   0.0000      -0.069866        -1.9012
  17   0.0000      -0.016456        -0.4478
  18   0.0000       0.014289         0.3888
  19   0.0000       0.029795         0.8108

MULLIKEN ATOMIC CHARGES
-----------------------
   0 O :   -0.143205
   1 C :   -0.023784
   2 S :    0.166988
Sum of atomic charges:    0.0000000

LOEWDIN ATOMIC CHARGES
----------------------
   0 O :    0.313588
   1 C :   -1.144011
   2 S :    0.830424

  Mayer bond orders larger than 0.100000
B(  0-O ,  1-C ) :   2.0771 B(  0-O ,  2-S ) :   0.2340 B(  1-C ,  2-S ) :   1.6879

Dispersion correction           -0.002094280
FINAL SINGLE POINT ENERGY      -511.649708620169

DIPOLE MOMENT
-------------
                                X             Y             Z
Electronic contribution:     -0.00000       0.00000       0.34945
Nuclear contribution   :      0.00000      -0.00000      -0.05519
                        -----------------------------------------
Total Dipole Moment    :     -0.00000       0.00000       0.29427
                        -----------------------------------------
Magnitude (a.u.)       :      0.29427
Magnitude (Debye)      :      0.74796

VIBRATIONAL FREQUENCIES
-----------------------

Scaling factor for frequencies =  1.000000000 (already applied!)

   0:         0.00 cm**-1
   1:         0.00 cm**-1
   2:         0.00 cm**-1
   3:         0.00 cm**-1
   4:         0.00 cm**-1
   5:         0.00 cm**-1
   6:       515.89 cm**-1
   7:       862.88 cm**-1
   8:      2057.74 cm**-1

IR SPECTRUM
-----------

 Mode    freq (cm**-1)   T**2         TX         TY         TZ
-------------------------------------------------------------------
   6:       515.89    1.017582  ( -0.721448   0.705050   0.000010)
   7:       862.88    6.294120  (  0.000001  -0.000001   2.508808)
   8:      2057.74  631.999376  ( -0.000001   0.000001  25.139598)

--------------------------
THERMOCHEMISTRY AT 298.15K
--------------------------

Temperature         ... 298.15 K
Pressure            ... 1.00 atm
Total Mass          ... 60.07 AMU
The molecule is recognized as being linear

Throughout the following assumptions are being made:
  (1) The electronic state is orbitally nondegenerate
  (2) There are no thermally accessible electronically excited states
  (3) Hindered rotations indicated by low frequency modes are not
      treated as such but are treated as vibrations and this may
      cause some error
  (4) All equations used are the standard statistical mechanics
      equations for an ideal gas
  (5) All vibrations are strictly harmonic

freq.     515.89  E(vib)   ...       0.13
freq.     862.88  E(vib)   ...       0.04
freq.    2057.74  E(vib)   ...       0.00

------------
INNER ENERGY
------------

The inner energy is: U= E(el) + E(ZPE) + E(vib) + E(rot) + E(trans)
    E(el)   - is the total energy from the electronic structure calculation
              = E(kin-el) + E(nuc-el) + E(el-el) + E(nuc-nuc)
    E(ZPE)  - the the zero temperature vibrational energy from the frequency calculation
    E(vib)  - the the finite temperature correction to E(ZPE) due to population
              of excited vibrational states
    E(rot)  - is the rotational thermal energy
    E(trans)- is the translational thermal energy

Summary of contributions to the inner energy U:
Electronic energy                ...   -511.64970862 Eh
Zero point energy                ...      0.00782893 Eh       4.91 kcal/mol
Thermal vibrational correction   ...      0.00027518 Eh       0.17 kcal/mol
Thermal rotational correction    ...      0.00094418 Eh       0.59 kcal/mol
Thermal translational correction ...      0.00141627 Eh       0.89 kcal/mol
-----------------------------------------------------------------------
Total thermal energy                   -511.63924406 Eh

Summary of corrections to the electronic energy:
(perhaps to be used in another calculation)
Total thermal correction                  0.00263563 Eh       1.65 kcal/mol
Non-thermal (ZPE) correction              0.00782893 Eh       4.91 kcal/mol
-----------------------------------------------------------------------
Total correction                          0.01046456 Eh       6.57 kcal/mol

--------
ENTHALPY
--------

The enthalpy is H = U + kB*T
                kB is Boltzmann's constant
Total free energy                 ...   -511.63924406 Eh
Thermal Enthalpy correction       ...      0.00094421 Eh       0.59 kcal/mol
-----------------------------------------------------------------------
Total Enthalpy                    ...   -511.63829985 Eh

Note: Rotational entropy computed according to Herzberg
Infrared and Raman Spectra, Chapter V,1, Van Nostrand Reinhold, 1945
Point Group:  Cinfv, Symmetry Number:   1
Rotational constants in cm-1:     0.000000     0.200828     0.200828

Vibrational entropy computed according to the QRRHO of S. Grimme
Chem.Eur.J. 2012 18 9955

-------
ENTROPY
-------

The entropy contributions are T*S = T*(S(el)+S(vib)+S(rot)+S(trans))
     S(el)   - electronic entropy
     S(vib)  - vibrational entropy
     S(rot)  - rotational entropy
     S(trans)- translational entropy
The entropies will be listed as mutliplied by the temperature to get
units of energy

Electronic entropy                ...      0.00000000 Eh      0.00 kcal/mol
Vibrational entropy               ...      0.00037223 Eh      0.23 kcal/mol
Rotational entropy                ...      0.00749596 Eh      4.70 kcal/mol
Translational entropy             ...      0.01814943 Eh     11.39 kcal/mol
-----------------------------------------------------------------------
Final entropy term                ...      0.02601762 Eh     16.33 kcal/mol

In case the symmetry of your molecule has not been determined correctly
or in case you have a reason to use a different symmetry number we print
out the resulting rotational entropy values for sn=1,12 :
 --------------------------------------------------------
|  sn= 1 | S(rot)=      -0.00531802 Eh     -3.34 kcal/mol|
|  sn= 2 | S(rot)=      -0.00597248 Eh     -3.75 kcal/mol|
|  sn= 3 | S(rot)=      -0.00635531 Eh     -3.99 kcal/mol|
|  sn= 4 | S(rot)=      -0.00662694 Eh     -4.16 kcal/mol|
|  sn= 5 | S(rot)=      -0.00683763 Eh     -4.29 kcal/mol|
|  sn= 6 | S(rot)=      -0.00700977 Eh     -4.40 kcal/mol|
|  sn= 7 | S(rot)=      -0.00715532 Eh     -4.49 kcal/mol|
|  sn= 8 | S(rot)=      -0.00728139 Eh     -4.57 kcal/mol|
|  sn= 9 | S(rot)=      -0.00739260 Eh     -4.64 kcal/mol|
|  sn=10 | S(rot)=      -0.00749208 Eh     -4.70 kcal/mol|
|  sn=11 | S(rot)=      -0.00758207 Eh     -4.76 kcal/mol|
|  sn=12 | S(rot)=      -0.00766423 Eh     -4.81 kcal/mol|
 --------------------------------------------------------

-------------------
GIBBS FREE ENERGY
-------------------

The Gibbs free energy is G = H - T*S

Total enthalpy                    ...   -511.63829985 Eh
Total entropy correction          ...     -0.02601762 Eh    -16.33 kcal/mol
-----------------------------------------------------------------------
Final Gibbs free energy         ...   -511.66431747 Eh

For completeness - the Gibbs free energy minus the electronic energy
G-E(el)                           ...     -0.01460885 Eh     -9.17 kcal/mol

                             ****ORCA TERMINATED NORMALLY****
TOTAL RUN TIME: 0 days 0 hours 0 minutes 31 seconds 366 msec
