                         Program Version 4.2.0 -  RELEASE  -
|  1> #
|  2> # 28_PH3 tpss/aug-cc-pvt(+d)z
|  3> #
|  4> ! tpss d3bj aug-cc-pvt(+d)z def2/j opt xyzfile numfreq
|  5>
|  6> *xyz 0 1
|  7> P           -0.005097099         -0.001153152          0.571181006
|  8> H           -0.658920833         -0.993994611         -0.198293924
|  9> H           -0.529115053          1.069739515         -0.192973374
| 10> H            1.193132979         -0.074591751         -0.179913708
| 11> *
| 12>
| 13> %pal
| 14> nprocs 24
| 15> end
| 16>
| 17>
| 18>                          ****END OF INPUT****
 Total Charge           Charge          ....    0
 Multiplicity           Mult            ....    1
 Number of Electrons    NEL             ....   18
Dispersion correction           -0.001679767
FINAL SINGLE POINT ENERGY      -343.189329272634
Dispersion correction            ... done
Dispersion correction           -0.001679850
FINAL SINGLE POINT ENERGY      -343.189351144956
Dispersion correction            ... done
Dispersion correction           -0.001680019
FINAL SINGLE POINT ENERGY      -343.189356748172
Dispersion correction            ... done
                    ***********************HURRAY********************

CARTESIAN COORDINATES (ANGSTROEM)
---------------------------------
  P     -0.005401   -0.000977    0.580499
  H     -0.656662   -0.991604   -0.201393
  H     -0.527459    1.067164   -0.195955
  H      1.189522   -0.074583   -0.183151

 Multiplicity           Mult            ....    1
 Number of Electrons    NEL             ....   18
 Basis Dimension        Dim             ....  124

ORBITAL ENERGIES
----------------

  NO   OCC          E(Eh)            E(eV)
   0   2.0000     -76.616339     -2084.8366
   1   2.0000      -6.371480      -173.3768
   2   2.0000      -4.550117      -123.8150
   3   2.0000      -4.550058      -123.8134
   4   2.0000      -4.547489      -123.7435
   5   2.0000      -0.597990       -16.2721
   6   2.0000      -0.354473        -9.6457
   7   2.0000      -0.354203        -9.6384
   8   2.0000      -0.251884        -6.8541
   9   0.0000      -0.017969        -0.4890
  10   0.0000      -0.006858        -0.1866
  11   0.0000      -0.006518        -0.1774
  12   0.0000       0.024041         0.6542
  13   0.0000       0.024543         0.6679

MULLIKEN ATOMIC CHARGES
-----------------------
   0 P :   -0.039725
   1 H :    0.017545
   2 H :    0.019271
   3 H :    0.002909
Sum of atomic charges:    0.0000000

LOEWDIN ATOMIC CHARGES
----------------------
   0 P :    1.338391
   1 H :   -0.446045
   2 H :   -0.446047
   3 H :   -0.446299

  Mayer bond orders larger than 0.100000
B(  0-P ,  1-H ) :   0.9592 B(  0-P ,  2-H ) :   0.9628 B(  0-P ,  3-H ) :   0.9501

Dispersion correction           -0.001680043
FINAL SINGLE POINT ENERGY      -343.189356648607

DIPOLE MOMENT
-------------
                                X             Y             Z
Electronic contribution:     -0.01396      -0.00311       1.80438
Nuclear contribution   :      0.01904       0.00345      -2.04619
                        -----------------------------------------
Total Dipole Moment    :      0.00507       0.00033      -0.24181
                        -----------------------------------------
Magnitude (a.u.)       :      0.24186
Magnitude (Debye)      :      0.61477

VIBRATIONAL FREQUENCIES
-----------------------

Scaling factor for frequencies =  1.000000000 (already applied!)

   0:         0.00 cm**-1
   1:         0.00 cm**-1
   2:         0.00 cm**-1
   3:         0.00 cm**-1
   4:         0.00 cm**-1
   5:         0.00 cm**-1
   6:      1017.97 cm**-1
   7:      1138.06 cm**-1
   8:      1138.35 cm**-1
   9:      2380.00 cm**-1
  10:      2382.18 cm**-1
  11:      2383.70 cm**-1

IR SPECTRUM
-----------

 Mode    freq (cm**-1)   T**2         TX         TY         TZ
-------------------------------------------------------------------
   6:      1017.97   22.505588  (  0.052100   0.002435   4.743719)
   7:      1138.06   16.981918  (  1.218989  -3.935945  -0.065717)
   8:      1138.35   11.202616  ( -2.962633  -1.553475   0.110180)
   9:      2380.00   35.562917  ( -1.731573   0.856256   5.641932)
  10:      2382.18   58.227976  ( -1.222973  -7.518876   0.445888)
  11:      2383.70   58.550515  ( -7.450668   1.087861  -1.361844)

--------------------------
THERMOCHEMISTRY AT 298.15K
--------------------------

Temperature         ... 298.15 K
Pressure            ... 1.00 atm
Total Mass          ... 34.00 AMU

Throughout the following assumptions are being made:
  (1) The electronic state is orbitally nondegenerate
  (2) There are no thermally accessible electronically excited states
  (3) Hindered rotations indicated by low frequency modes are not
      treated as such but are treated as vibrations and this may
      cause some error
  (4) All equations used are the standard statistical mechanics
      equations for an ideal gas
  (5) All vibrations are strictly harmonic

freq.    1017.97  E(vib)   ...       0.02
freq.    1138.06  E(vib)   ...       0.01
freq.    1138.35  E(vib)   ...       0.01
freq.    2380.00  E(vib)   ...       0.00
freq.    2382.18  E(vib)   ...       0.00
freq.    2383.70  E(vib)   ...       0.00

------------
INNER ENERGY
------------

The inner energy is: U= E(el) + E(ZPE) + E(vib) + E(rot) + E(trans)
    E(el)   - is the total energy from the electronic structure calculation
              = E(kin-el) + E(nuc-el) + E(el-el) + E(nuc-nuc)
    E(ZPE)  - the the zero temperature vibrational energy from the frequency calculation
    E(vib)  - the the finite temperature correction to E(ZPE) due to population
              of excited vibrational states
    E(rot)  - is the rotational thermal energy
    E(trans)- is the translational thermal energy

Summary of contributions to the inner energy U:
Electronic energy                ...   -343.18935665 Eh
Zero point energy                ...      0.02378465 Eh      14.93 kcal/mol
Thermal vibrational correction   ...      0.00007759 Eh       0.05 kcal/mol
Thermal rotational correction    ...      0.00141627 Eh       0.89 kcal/mol
Thermal translational correction ...      0.00141627 Eh       0.89 kcal/mol
-----------------------------------------------------------------------
Total thermal energy                   -343.16266187 Eh

Summary of corrections to the electronic energy:
(perhaps to be used in another calculation)
Total thermal correction                  0.00291013 Eh       1.83 kcal/mol
Non-thermal (ZPE) correction              0.02378465 Eh      14.93 kcal/mol
-----------------------------------------------------------------------
Total correction                          0.02669478 Eh      16.75 kcal/mol

--------
ENTHALPY
--------

The enthalpy is H = U + kB*T
                kB is Boltzmann's constant
Total free energy                 ...   -343.16266187 Eh
Thermal Enthalpy correction       ...      0.00094421 Eh       0.59 kcal/mol
-----------------------------------------------------------------------
Total Enthalpy                    ...   -343.16171766 Eh

Note: Only C1 symmetry has been detected, increase convergence thresholds
      if your molecule has a higher symmetry. Symmetry factor of 1.0 is
      used for the rotational entropy correction.

Note: Rotational entropy computed according to Herzberg
Infrared and Raman Spectra, Chapter V,1, Van Nostrand Reinhold, 1945
Point Group:  C1, Symmetry Number:   1
Rotational constants in cm-1:     4.445478     4.441629     3.932961

Vibrational entropy computed according to the QRRHO of S. Grimme
Chem.Eur.J. 2012 18 9955

-------
ENTROPY
-------

The entropy contributions are T*S = T*(S(el)+S(vib)+S(rot)+S(trans))
     S(el)   - electronic entropy
     S(vib)  - vibrational entropy
     S(rot)  - rotational entropy
     S(trans)- translational entropy
The entropies will be listed as mutliplied by the temperature to get
units of energy

Electronic entropy                ...      0.00000000 Eh      0.00 kcal/mol
Vibrational entropy               ...      0.00009242 Eh      0.06 kcal/mol
Rotational entropy                ...      0.00745613 Eh      4.68 kcal/mol
Translational entropy             ...      0.01734327 Eh     10.88 kcal/mol
-----------------------------------------------------------------------
Final entropy term                ...      0.02489182 Eh     15.62 kcal/mol

In case the symmetry of your molecule has not been determined correctly
or in case you have a reason to use a different symmetry number we print
out the resulting rotational entropy values for sn=1,12 :
 --------------------------------------------------------
|  sn= 1 | S(rot)=       0.00745613 Eh      4.68 kcal/mol|
|  sn= 2 | S(rot)=       0.00680167 Eh      4.27 kcal/mol|
|  sn= 3 | S(rot)=       0.00641884 Eh      4.03 kcal/mol|
|  sn= 4 | S(rot)=       0.00614722 Eh      3.86 kcal/mol|
|  sn= 5 | S(rot)=       0.00593653 Eh      3.73 kcal/mol|
|  sn= 6 | S(rot)=       0.00576439 Eh      3.62 kcal/mol|
|  sn= 7 | S(rot)=       0.00561884 Eh      3.53 kcal/mol|
|  sn= 8 | S(rot)=       0.00549276 Eh      3.45 kcal/mol|
|  sn= 9 | S(rot)=       0.00538155 Eh      3.38 kcal/mol|
|  sn=10 | S(rot)=       0.00528207 Eh      3.31 kcal/mol|
|  sn=11 | S(rot)=       0.00519208 Eh      3.26 kcal/mol|
|  sn=12 | S(rot)=       0.00510993 Eh      3.21 kcal/mol|
 --------------------------------------------------------

-------------------
GIBBS FREE ENERGY
-------------------

The Gibbs free energy is G = H - T*S

Total enthalpy                    ...   -343.16171766 Eh
Total entropy correction          ...     -0.02489182 Eh    -15.62 kcal/mol
-----------------------------------------------------------------------
Final Gibbs free energy         ...   -343.18660948 Eh

For completeness - the Gibbs free energy minus the electronic energy
G-E(el)                           ...      0.00274717 Eh      1.72 kcal/mol

                             ****ORCA TERMINATED NORMALLY****
TOTAL RUN TIME: 0 days 0 hours 0 minutes 27 seconds 622 msec
