                         Program Version 4.2.0 -  RELEASE  -
|  1> #
|  2> # 30_SO2 tpss/aug-cc-pvt(+d)z
|  3> #
|  4> ! tpss d3bj aug-cc-pvt(+d)z def2/j opt xyzfile numfreq
|  5>
|  6> *xyz 0 1
|  7> S           -0.001418646          0.484606293         -0.000000013
|  8> O            1.234874832         -0.238706427         -0.000000091
|  9> O           -1.233456186         -0.245899866          0.000000104
| 10> *
| 11>
| 12> %pal
| 13> nprocs 24
| 14> end
| 15>
| 16>
| 17>                          ****END OF INPUT****
 Total Charge           Charge          ....    0
 Multiplicity           Mult            ....    1
 Number of Electrons    NEL             ....   32
Dispersion correction           -0.001735309
FINAL SINGLE POINT ENERGY      -548.758500416312
Dispersion correction            ... done
Dispersion correction           -0.001733525
FINAL SINGLE POINT ENERGY      -548.759272778003
Dispersion correction            ... done
Dispersion correction           -0.001732077
FINAL SINGLE POINT ENERGY      -548.759492500729
Dispersion correction            ... done
Dispersion correction           -0.001732048
FINAL SINGLE POINT ENERGY      -548.759493659461
Dispersion correction            ... done
Dispersion correction           -0.001732094
FINAL SINGLE POINT ENERGY      -548.759494070884
Dispersion correction            ... done
                    ***********************HURRAY********************

CARTESIAN COORDINATES (ANGSTROEM)
---------------------------------
  S     -0.001435    0.490349   -0.000000
  O      1.254701   -0.241520   -0.000000
  O     -1.253266   -0.248829    0.000000

 Multiplicity           Mult            ....    1
 Number of Electrons    NEL             ....   32
 Basis Dimension        Dim             ....  147

ORBITAL ENERGIES
----------------

  NO   OCC          E(Eh)            E(eV)
   0   2.0000     -88.561803     -2409.8892
   1   2.0000     -18.949602      -515.6449
   2   2.0000     -18.949591      -515.6446
   3   2.0000      -7.898574      -214.9311
   4   2.0000      -5.880680      -160.0214
   5   2.0000      -5.879371      -159.9858
   6   2.0000      -5.873288      -159.8203
   7   2.0000      -1.071599       -29.1597
   8   2.0000      -0.986587       -26.8464
   9   2.0000      -0.595316       -16.1994
  10   2.0000      -0.454070       -12.3559
  11   2.0000      -0.450006       -12.2453
  12   2.0000      -0.447056       -12.1650
  13   2.0000      -0.345165        -9.3924
  14   2.0000      -0.323431        -8.8010
  15   2.0000      -0.300344        -8.1728
  16   0.0000      -0.166432        -4.5288
  17   0.0000      -0.019245        -0.5237
  18   0.0000       0.007968         0.2168
  19   0.0000       0.013775         0.3748
  20   0.0000       0.033100         0.9007

MULLIKEN ATOMIC CHARGES
-----------------------
   0 S :    1.053093
   1 O :   -0.526529
   2 O :   -0.526564
Sum of atomic charges:   -0.0000000

LOEWDIN ATOMIC CHARGES
----------------------
   0 S :    0.372157
   1 O :   -0.186077
   2 O :   -0.186079

  Mayer bond orders larger than 0.100000
B(  0-S ,  1-O ) :   1.7603 B(  0-S ,  2-O ) :   1.7603 B(  1-O ,  2-O ) :   0.2625

Dispersion correction           -0.001732120
FINAL SINGLE POINT ENERGY      -548.759494326591

DIPOLE MOMENT
-------------
                                X             Y             Z
Electronic contribution:     -0.00187       0.63331      -0.00000
Nuclear contribution   :      0.00006      -0.02152       0.00000
                        -----------------------------------------
Total Dipole Moment    :     -0.00181       0.61178      -0.00000
                        -----------------------------------------
Magnitude (a.u.)       :      0.61178
Magnitude (Debye)      :      1.55503

VIBRATIONAL FREQUENCIES
-----------------------

Scaling factor for frequencies =  1.000000000 (already applied!)

   0:         0.00 cm**-1
   1:         0.00 cm**-1
   2:         0.00 cm**-1
   3:         0.00 cm**-1
   4:         0.00 cm**-1
   5:         0.00 cm**-1
   6:       491.04 cm**-1
   7:      1118.20 cm**-1
   8:      1313.04 cm**-1

IR SPECTRUM
-----------

 Mode    freq (cm**-1)   T**2         TX         TY         TZ
-------------------------------------------------------------------
   6:       491.04   23.292203  ( -0.022073   4.826149  -0.000001)
   7:      1118.20   23.953100  ( -0.021916   4.894141  -0.000000)
   8:      1313.04  187.567292  (-13.695460  -0.040861   0.000001)

--------------------------
THERMOCHEMISTRY AT 298.15K
--------------------------

Temperature         ... 298.15 K
Pressure            ... 1.00 atm
Total Mass          ... 64.06 AMU

Throughout the following assumptions are being made:
  (1) The electronic state is orbitally nondegenerate
  (2) There are no thermally accessible electronically excited states
  (3) Hindered rotations indicated by low frequency modes are not
      treated as such but are treated as vibrations and this may
      cause some error
  (4) All equations used are the standard statistical mechanics
      equations for an ideal gas
  (5) All vibrations are strictly harmonic

freq.     491.04  E(vib)   ...       0.14
freq.    1118.20  E(vib)   ...       0.01
freq.    1313.04  E(vib)   ...       0.01

------------
INNER ENERGY
------------

The inner energy is: U= E(el) + E(ZPE) + E(vib) + E(rot) + E(trans)
    E(el)   - is the total energy from the electronic structure calculation
              = E(kin-el) + E(nuc-el) + E(el-el) + E(nuc-nuc)
    E(ZPE)  - the the zero temperature vibrational energy from the frequency calculation
    E(vib)  - the the finite temperature correction to E(ZPE) due to population
              of excited vibrational states
    E(rot)  - is the rotational thermal energy
    E(trans)- is the translational thermal energy

Summary of contributions to the inner energy U:
Electronic energy                ...   -548.75949433 Eh
Zero point energy                ...      0.00665743 Eh       4.18 kcal/mol
Thermal vibrational correction   ...      0.00026466 Eh       0.17 kcal/mol
Thermal rotational correction    ...      0.00141627 Eh       0.89 kcal/mol
Thermal translational correction ...      0.00141627 Eh       0.89 kcal/mol
-----------------------------------------------------------------------
Total thermal energy                   -548.74973970 Eh

Summary of corrections to the electronic energy:
(perhaps to be used in another calculation)
Total thermal correction                  0.00309720 Eh       1.94 kcal/mol
Non-thermal (ZPE) correction              0.00665743 Eh       4.18 kcal/mol
-----------------------------------------------------------------------
Total correction                          0.00975463 Eh       6.12 kcal/mol

--------
ENTHALPY
--------

The enthalpy is H = U + kB*T
                kB is Boltzmann's constant
Total free energy                 ...   -548.74973970 Eh
Thermal Enthalpy correction       ...      0.00094421 Eh       0.59 kcal/mol
-----------------------------------------------------------------------
Total Enthalpy                    ...   -548.74879549 Eh

Note: Rotational entropy computed according to Herzberg
Infrared and Raman Spectra, Chapter V,1, Van Nostrand Reinhold, 1945
Point Group:  Cs, Symmetry Number:   1
Rotational constants in cm-1:     1.945746     0.335032     0.285818

Vibrational entropy computed according to the QRRHO of S. Grimme
Chem.Eur.J. 2012 18 9955

-------
ENTROPY
-------

The entropy contributions are T*S = T*(S(el)+S(vib)+S(rot)+S(trans))
     S(el)   - electronic entropy
     S(vib)  - vibrational entropy
     S(rot)  - rotational entropy
     S(trans)- translational entropy
The entropies will be listed as mutliplied by the temperature to get
units of energy

Electronic entropy                ...      0.00000000 Eh      0.00 kcal/mol
Vibrational entropy               ...      0.00036382 Eh      0.23 kcal/mol
Rotational entropy                ...      0.01030406 Eh      6.47 kcal/mol
Translational entropy             ...      0.01824046 Eh     11.45 kcal/mol
-----------------------------------------------------------------------
Final entropy term                ...      0.02890834 Eh     18.14 kcal/mol

In case the symmetry of your molecule has not been determined correctly
or in case you have a reason to use a different symmetry number we print
out the resulting rotational entropy values for sn=1,12 :
 --------------------------------------------------------
|  sn= 1 | S(rot)=       0.01030406 Eh      6.47 kcal/mol|
|  sn= 2 | S(rot)=       0.00964960 Eh      6.06 kcal/mol|
|  sn= 3 | S(rot)=       0.00926677 Eh      5.81 kcal/mol|
|  sn= 4 | S(rot)=       0.00899514 Eh      5.64 kcal/mol|
|  sn= 5 | S(rot)=       0.00878445 Eh      5.51 kcal/mol|
|  sn= 6 | S(rot)=       0.00861231 Eh      5.40 kcal/mol|
|  sn= 7 | S(rot)=       0.00846676 Eh      5.31 kcal/mol|
|  sn= 8 | S(rot)=       0.00834069 Eh      5.23 kcal/mol|
|  sn= 9 | S(rot)=       0.00822948 Eh      5.16 kcal/mol|
|  sn=10 | S(rot)=       0.00813000 Eh      5.10 kcal/mol|
|  sn=11 | S(rot)=       0.00804001 Eh      5.05 kcal/mol|
|  sn=12 | S(rot)=       0.00795785 Eh      4.99 kcal/mol|
 --------------------------------------------------------

-------------------
GIBBS FREE ENERGY
-------------------

The Gibbs free energy is G = H - T*S

Total enthalpy                    ...   -548.74879549 Eh
Total entropy correction          ...     -0.02890834 Eh    -18.14 kcal/mol
-----------------------------------------------------------------------
Final Gibbs free energy         ...   -548.77770384 Eh

For completeness - the Gibbs free energy minus the electronic energy
G-E(el)                           ...     -0.01820951 Eh    -11.43 kcal/mol

                             ****ORCA TERMINATED NORMALLY****
TOTAL RUN TIME: 0 days 0 hours 0 minutes 43 seconds 195 msec
