                         Program Version 4.2.0 -  RELEASE  -
|  1> #
|  2> # 31_CH3OH tpss/aug-cc-pvt(+d)z
|  3> #
|  4> ! tpss d3bj aug-cc-pvt(+d)z def2/j opt xyzfile numfreq
|  5>
|  6> *xyz 0 1
|  7> C           -0.363402325         -0.041285362         -0.013690119
|  8> O            0.999643168         -0.347047081         -0.277037073
|  9> H           -0.526683527          1.037540752          0.098676465
| 10> H           -0.619974523         -0.530259474          0.927500411
| 11> H           -1.027781749         -0.424805686         -0.797699235
| 12> H            1.254756116          0.072031989         -1.103555394
| 13> *
| 14>
| 15> %pal
| 16> nprocs 24
| 17> end
| 18>
| 19>
| 20>                          ****END OF INPUT****
 Total Charge           Charge          ....    0
 Multiplicity           Mult            ....    1
 Number of Electrons    NEL             ....   18
Dispersion correction           -0.002264778
FINAL SINGLE POINT ENERGY      -115.788505982364
Dispersion correction            ... done
Dispersion correction           -0.002263223
FINAL SINGLE POINT ENERGY      -115.788615081673
Dispersion correction            ... done
Dispersion correction           -0.002263085
FINAL SINGLE POINT ENERGY      -115.788629281718
Dispersion correction            ... done
Dispersion correction           -0.002263338
FINAL SINGLE POINT ENERGY      -115.788631175094
Dispersion correction            ... done
Dispersion correction           -0.002263501
FINAL SINGLE POINT ENERGY      -115.788631147635
Dispersion correction            ... done
                    ***********************HURRAY********************

CARTESIAN COORDINATES (ANGSTROEM)
---------------------------------
  C     -0.369804   -0.038954   -0.012163
  O      1.007553   -0.348220   -0.272312
  H     -0.529991    1.041437    0.100518
  H     -0.618322   -0.533085    0.928285
  H     -1.029378   -0.424433   -0.800716
  H      1.256500    0.069430   -1.109417

 Multiplicity           Mult            ....    1
 Number of Electrons    NEL             ....   18
 Basis Dimension        Dim             ....  184

ORBITAL ENERGIES
----------------

  NO   OCC          E(Eh)            E(eV)
   0   2.0000     -18.886085      -513.9165
   1   2.0000     -10.032849      -273.0077
   2   2.0000      -0.950082       -25.8531
   3   2.0000      -0.633344       -17.2342
   4   2.0000      -0.461948       -12.5702
   5   2.0000      -0.398006       -10.8303
   6   2.0000      -0.383767       -10.4428
   7   2.0000      -0.300527        -8.1778
   8   2.0000      -0.235644        -6.4122
   9   0.0000      -0.018991        -0.5168
  10   0.0000       0.001678         0.0457
  11   0.0000       0.020783         0.5655
  12   0.0000       0.024577         0.6688
  13   0.0000       0.054582         1.4852

MULLIKEN ATOMIC CHARGES
-----------------------
   0 C :   -0.083569
   1 O :   -0.435806
   2 H :    0.116838
   3 H :    0.139982
   4 H :    0.118415
   5 H :    0.144140
Sum of atomic charges:   -0.0000000

LOEWDIN ATOMIC CHARGES
----------------------
   0 C :    0.313042
   1 O :    0.785624
   2 H :   -0.194394
   3 H :   -0.202319
   4 H :   -0.194502
   5 H :   -0.507451

  Mayer bond orders larger than 0.100000
B(  0-C ,  1-O ) :   0.8126 B(  0-C ,  2-H ) :   0.9624 B(  0-C ,  3-H ) :   0.9676
B(  0-C ,  4-H ) :   0.9856 B(  1-O ,  5-H ) :   0.9740

Dispersion correction           -0.002263552
FINAL SINGLE POINT ENERGY      -115.788631212457

DIPOLE MOMENT
-------------
                                X             Y             Z
Electronic contribution:      1.73375      -0.48067      -0.17504
Nuclear contribution   :     -2.11327       0.83062      -0.19697
                        -----------------------------------------
Total Dipole Moment    :     -0.37953       0.34994      -0.37201
                        -----------------------------------------
Magnitude (a.u.)       :      0.63631
Magnitude (Debye)      :      1.61737

VIBRATIONAL FREQUENCIES
-----------------------

Scaling factor for frequencies =  1.000000000 (already applied!)

   0:         0.00 cm**-1
   1:         0.00 cm**-1
   2:         0.00 cm**-1
   3:         0.00 cm**-1
   4:         0.00 cm**-1
   5:         0.00 cm**-1
   6:       290.10 cm**-1
   7:      1000.40 cm**-1
   8:      1055.83 cm**-1
   9:      1151.63 cm**-1
  10:      1353.75 cm**-1
  11:      1459.23 cm**-1
  12:      1492.33 cm**-1
  13:      1502.72 cm**-1
  14:      2959.50 cm**-1
  15:      3004.32 cm**-1
  16:      3083.54 cm**-1
  17:      3723.09 cm**-1

IR SPECTRUM
-----------

 Mode    freq (cm**-1)   T**2         TX         TY         TZ
-------------------------------------------------------------------
   6:       290.10   95.375981  ( -2.752469  -7.923330  -5.002074)
   7:      1000.40  110.767373  (-10.113506   2.248538   1.851608)
   8:      1055.83    4.652118  ( -2.031575   0.688223  -0.226213)
   9:      1151.63    0.472913  (  0.048777   0.627437   0.277230)
  10:      1353.75   19.854577  ( -4.204717   1.457456  -0.225289)
  11:      1459.23    4.522679  ( -2.035115   0.461911   0.409420)
  12:      1492.33    1.837835  ( -0.338436  -1.130887  -0.666626)
  13:      1502.72    4.309129  ( -0.535985  -0.824658   1.828056)
  14:      2959.50   64.668159  (  7.514898  -2.789203   0.644063)
  15:      3004.32   56.562669  ( -2.003160  -6.218935  -3.724898)
  16:      3083.54   25.582807  (  0.719468   2.514259  -4.329397)
  17:      3723.09   18.490188  ( -2.680849  -0.973560   3.217984)

--------------------------
THERMOCHEMISTRY AT 298.15K
--------------------------

Temperature         ... 298.15 K
Pressure            ... 1.00 atm
Total Mass          ... 32.04 AMU

Throughout the following assumptions are being made:
  (1) The electronic state is orbitally nondegenerate
  (2) There are no thermally accessible electronically excited states
  (3) Hindered rotations indicated by low frequency modes are not
      treated as such but are treated as vibrations and this may
      cause some error
  (4) All equations used are the standard statistical mechanics
      equations for an ideal gas
  (5) All vibrations are strictly harmonic

freq.     290.10  E(vib)   ...       0.27
freq.    1000.40  E(vib)   ...       0.02
freq.    1055.83  E(vib)   ...       0.02
freq.    1151.63  E(vib)   ...       0.01
freq.    1353.75  E(vib)   ...       0.01
freq.    1459.23  E(vib)   ...       0.00
freq.    1492.33  E(vib)   ...       0.00
freq.    1502.72  E(vib)   ...       0.00
freq.    2959.50  E(vib)   ...       0.00
freq.    3004.32  E(vib)   ...       0.00
freq.    3083.54  E(vib)   ...       0.00
freq.    3723.09  E(vib)   ...       0.00

------------
INNER ENERGY
------------

The inner energy is: U= E(el) + E(ZPE) + E(vib) + E(rot) + E(trans)
    E(el)   - is the total energy from the electronic structure calculation
              = E(kin-el) + E(nuc-el) + E(el-el) + E(nuc-nuc)
    E(ZPE)  - the the zero temperature vibrational energy from the frequency calculation
    E(vib)  - the the finite temperature correction to E(ZPE) due to population
              of excited vibrational states
    E(rot)  - is the rotational thermal energy
    E(trans)- is the translational thermal energy

Summary of contributions to the inner energy U:
Electronic energy                ...   -115.78863120 Eh
Zero point energy                ...      0.05029383 Eh      31.56 kcal/mol
Thermal vibrational correction   ...      0.00054424 Eh       0.34 kcal/mol
Thermal rotational correction    ...      0.00141627 Eh       0.89 kcal/mol
Thermal translational correction ...      0.00141627 Eh       0.89 kcal/mol
-----------------------------------------------------------------------
Total thermal energy                   -115.73496059 Eh

Summary of corrections to the electronic energy:
(perhaps to be used in another calculation)
Total thermal correction                  0.00337678 Eh       2.12 kcal/mol
Non-thermal (ZPE) correction              0.05029383 Eh      31.56 kcal/mol
-----------------------------------------------------------------------
Total correction                          0.05367061 Eh      33.68 kcal/mol

--------
ENTHALPY
--------

The enthalpy is H = U + kB*T
                kB is Boltzmann's constant
Total free energy                 ...   -115.73496059 Eh
Thermal Enthalpy correction       ...      0.00094421 Eh       0.59 kcal/mol
-----------------------------------------------------------------------
Total Enthalpy                    ...   -115.73401638 Eh

Note: Only C1 symmetry has been detected, increase convergence thresholds
      if your molecule has a higher symmetry. Symmetry factor of 1.0 is
      used for the rotational entropy correction.

Note: Rotational entropy computed according to Herzberg
Infrared and Raman Spectra, Chapter V,1, Van Nostrand Reinhold, 1945
Point Group:  C1, Symmetry Number:   1
Rotational constants in cm-1:     4.228884     0.813274     0.784867

Vibrational entropy computed according to the QRRHO of S. Grimme
Chem.Eur.J. 2012 18 9955

-------
ENTROPY
-------

The entropy contributions are T*S = T*(S(el)+S(vib)+S(rot)+S(trans))
     S(el)   - electronic entropy
     S(vib)  - vibrational entropy
     S(rot)  - rotational entropy
     S(trans)- translational entropy
The entropies will be listed as mutliplied by the temperature to get
units of energy

Electronic entropy                ...      0.00000000 Eh      0.00 kcal/mol
Vibrational entropy               ...      0.00083442 Eh      0.52 kcal/mol
Rotational entropy                ...      0.00904202 Eh      5.67 kcal/mol
Translational entropy             ...      0.01725935 Eh     10.83 kcal/mol
-----------------------------------------------------------------------
Final entropy term                ...      0.02713579 Eh     17.03 kcal/mol

In case the symmetry of your molecule has not been determined correctly
or in case you have a reason to use a different symmetry number we print
out the resulting rotational entropy values for sn=1,12 :
 --------------------------------------------------------
|  sn= 1 | S(rot)=       0.00904202 Eh      5.67 kcal/mol|
|  sn= 2 | S(rot)=       0.00838756 Eh      5.26 kcal/mol|
|  sn= 3 | S(rot)=       0.00800473 Eh      5.02 kcal/mol|
|  sn= 4 | S(rot)=       0.00773311 Eh      4.85 kcal/mol|
|  sn= 5 | S(rot)=       0.00752242 Eh      4.72 kcal/mol|
|  sn= 6 | S(rot)=       0.00735027 Eh      4.61 kcal/mol|
|  sn= 7 | S(rot)=       0.00720473 Eh      4.52 kcal/mol|
|  sn= 8 | S(rot)=       0.00707865 Eh      4.44 kcal/mol|
|  sn= 9 | S(rot)=       0.00696744 Eh      4.37 kcal/mol|
|  sn=10 | S(rot)=       0.00686796 Eh      4.31 kcal/mol|
|  sn=11 | S(rot)=       0.00677797 Eh      4.25 kcal/mol|
|  sn=12 | S(rot)=       0.00669582 Eh      4.20 kcal/mol|
 --------------------------------------------------------

-------------------
GIBBS FREE ENERGY
-------------------

The Gibbs free energy is G = H - T*S

Total enthalpy                    ...   -115.73401638 Eh
Total entropy correction          ...     -0.02713579 Eh    -17.03 kcal/mol
-----------------------------------------------------------------------
Final Gibbs free energy         ...   -115.76115217 Eh

For completeness - the Gibbs free energy minus the electronic energy
G-E(el)                           ...      0.02747902 Eh     17.24 kcal/mol

                             ****ORCA TERMINATED NORMALLY****
TOTAL RUN TIME: 0 days 0 hours 0 minutes 52 seconds 63 msec
