                         Program Version 4.2.0 -  RELEASE  -
|  1> #
|  2> # 32_S2 tpss/aug-cc-pvt(+d)z
|  3> #
|  4> ! tpss d3bj aug-cc-pvt(+d)z def2/j opt xyzfile numfreq
|  5>
|  6> *xyz 0 3
|  7> S           -0.000000000         -0.000000000          0.005070157
|  8> S            0.000000000          0.000000000          1.891814433
|  9> *
| 10>
| 11> %pal
| 12> nprocs 24
| 13> end
| 14>
| 15>
| 16>                          ****END OF INPUT****
 Total Charge           Charge          ....    0
 Multiplicity           Mult            ....    3
 Number of Electrons    NEL             ....   32
Dispersion correction           -0.001708253
FINAL SINGLE POINT ENERGY      -796.460076101381
Dispersion correction            ... done
Dispersion correction           -0.001707979
FINAL SINGLE POINT ENERGY      -796.460230441375
Dispersion correction            ... done
Dispersion correction           -0.001707623
FINAL SINGLE POINT ENERGY      -796.460300053796
Dispersion correction            ... done
Dispersion correction           -0.001707605
FINAL SINGLE POINT ENERGY      -796.460299980919
Dispersion correction            ... done
                    ***********************HURRAY********************

CARTESIAN COORDINATES (ANGSTROEM)
---------------------------------
  S      0.000000    0.000000   -0.005179
  S      0.000000    0.000000    1.902064

 Multiplicity           Mult            ....    3
 Number of Electrons    NEL             ....   32
 Basis Dimension        Dim             ....  110

ORBITAL ENERGIES
----------------
                 SPIN UP ORBITALS
  NO   OCC          E(Eh)            E(eV)
   0   1.0000     -88.442169     -2406.6338
   1   1.0000     -88.442165     -2406.6337
   2   1.0000      -7.794084      -212.0878
   3   1.0000      -7.793949      -212.0841
   4   1.0000      -5.773800      -157.1131
   5   1.0000      -5.773093      -157.0939
   6   1.0000      -5.772935      -157.0895
   7   1.0000      -5.772935      -157.0895
   8   1.0000      -5.772877      -157.0880
   9   1.0000      -5.772877      -157.0880
  10   1.0000      -0.778852       -21.1936
  11   1.0000      -0.587808       -15.9951
  12   1.0000      -0.369118       -10.0442
  13   1.0000      -0.344277        -9.3683
  14   1.0000      -0.344277        -9.3683
  15   1.0000      -0.220743        -6.0067
  16   1.0000      -0.220743        -6.0067
  17   0.0000      -0.045827        -1.2470
  18   0.0000       0.012358         0.3363
  19   0.0000       0.034886         0.9493
  20   0.0000       0.034886         0.9493
  21   0.0000       0.036721         0.9992

                 SPIN DOWN ORBITALS
  NO   OCC          E(Eh)            E(eV)
   0   1.0000     -88.436979     -2406.4925
   1   1.0000     -88.436974     -2406.4924
   2   1.0000      -7.789395      -211.9602
   3   1.0000      -7.789260      -211.9565
   4   1.0000      -5.770974      -157.0362
   5   1.0000      -5.770265      -157.0169
   6   1.0000      -5.763894      -156.8435
   7   1.0000      -5.763894      -156.8435
   8   1.0000      -5.763837      -156.8420
   9   1.0000      -5.763837      -156.8420
  10   1.0000      -0.755223       -20.5507
  11   1.0000      -0.539886       -14.6911
  12   1.0000      -0.349084        -9.4991
  13   1.0000      -0.305547        -8.3144
  14   1.0000      -0.305547        -8.3144
  15   0.0000      -0.165160        -4.4942
  16   0.0000      -0.165160        -4.4942
  17   0.0000      -0.029819        -0.8114
  18   0.0000       0.020489         0.5575
  19   0.0000       0.041992         1.1427

MULLIKEN ATOMIC CHARGES AND SPIN POPULATIONS
--------------------------------------------
   0 S :   -0.000001    1.000000
   1 S :    0.000001    1.000000
Sum of atomic charges         :   -0.0000000

LOEWDIN ATOMIC CHARGES AND SPIN POPULATIONS
-------------------------------------------
   0 S :   -0.000000    1.000000
   1 S :    0.000000    1.000000

  Mayer bond orders larger than 0.100000
B(  0-S ,  1-S ) :   1.8974

Dispersion correction           -0.001707604
FINAL SINGLE POINT ENERGY      -796.460299012241

DIPOLE MOMENT
-------------
                                X             Y             Z
Electronic contribution:     -0.00000      -0.00000       0.00000
Nuclear contribution   :      0.00000       0.00000       0.00000
                        -----------------------------------------
Total Dipole Moment    :     -0.00000      -0.00000       0.00000
                        -----------------------------------------
Magnitude (a.u.)       :      0.00000
Magnitude (Debye)      :      0.00000

VIBRATIONAL FREQUENCIES
-----------------------

Scaling factor for frequencies =  1.000000000 (already applied!)

   0:         0.00 cm**-1
   1:         0.00 cm**-1
   2:         0.00 cm**-1
   3:         0.00 cm**-1
   4:         0.00 cm**-1
   5:       702.65 cm**-1

IR SPECTRUM
-----------

 Mode    freq (cm**-1)   T**2         TX         TY         TZ
-------------------------------------------------------------------
   5:       702.65    0.000018  ( -0.000000   0.000000   0.004188)

--------------------------
THERMOCHEMISTRY AT 298.15K
--------------------------

Temperature         ... 298.15 K
Pressure            ... 1.00 atm
Total Mass          ... 64.12 AMU
The molecule is recognized as being linear

Throughout the following assumptions are being made:
  (1) The electronic state is orbitally nondegenerate
      but the spin degeneracy is treated
  (2) There are no thermally accessible electronically excited states
  (3) Hindered rotations indicated by low frequency modes are not
      treated as such but are treated as vibrations and this may
      cause some error
  (4) All equations used are the standard statistical mechanics
      equations for an ideal gas
  (5) All vibrations are strictly harmonic

freq.     702.65  E(vib)   ...       0.07

------------
INNER ENERGY
------------

The inner energy is: U= E(el) + E(ZPE) + E(vib) + E(rot) + E(trans)
    E(el)   - is the total energy from the electronic structure calculation
              = E(kin-el) + E(nuc-el) + E(el-el) + E(nuc-nuc)
    E(ZPE)  - the the zero temperature vibrational energy from the frequency calculation
    E(vib)  - the the finite temperature correction to E(ZPE) due to population
              of excited vibrational states
    E(rot)  - is the rotational thermal energy
    E(trans)- is the translational thermal energy

Summary of contributions to the inner energy U:
Electronic energy                ...   -796.46030058 Eh
Zero point energy                ...      0.00160076 Eh       1.00 kcal/mol
Thermal vibrational correction   ...      0.00011160 Eh       0.07 kcal/mol
Thermal rotational correction    ...      0.00094418 Eh       0.59 kcal/mol
Thermal translational correction ...      0.00141627 Eh       0.89 kcal/mol
-----------------------------------------------------------------------
Total thermal energy                   -796.45622777 Eh

Summary of corrections to the electronic energy:
(perhaps to be used in another calculation)
Total thermal correction                  0.00247206 Eh       1.55 kcal/mol
Non-thermal (ZPE) correction              0.00160076 Eh       1.00 kcal/mol
-----------------------------------------------------------------------
Total correction                          0.00407281 Eh       2.56 kcal/mol

--------
ENTHALPY
--------

The enthalpy is H = U + kB*T
                kB is Boltzmann's constant
Total free energy                 ...   -796.45622777 Eh
Thermal Enthalpy correction       ...      0.00094421 Eh       0.59 kcal/mol
-----------------------------------------------------------------------
Total Enthalpy                    ...   -796.45528356 Eh

Note: Rotational entropy computed according to Herzberg
Infrared and Raman Spectra, Chapter V,1, Van Nostrand Reinhold, 1945
Point Group:  Dinfh, Symmetry Number:   2
Rotational constants in cm-1:     0.000000     0.289102     0.289102

Vibrational entropy computed according to the QRRHO of S. Grimme
Chem.Eur.J. 2012 18 9955

-------
ENTROPY
-------

The entropy contributions are T*S = T*(S(el)+S(vib)+S(rot)+S(trans))
     S(el)   - electronic entropy
     S(vib)  - vibrational entropy
     S(rot)  - rotational entropy
     S(trans)- translational entropy
The entropies will be listed as mutliplied by the temperature to get
units of energy

Electronic entropy                ...      0.00103729 Eh      0.65 kcal/mol
Vibrational entropy               ...      0.00014407 Eh      0.09 kcal/mol
Rotational entropy                ...      0.00649751 Eh      4.08 kcal/mol
Translational entropy             ...      0.01824183 Eh     11.45 kcal/mol
-----------------------------------------------------------------------
Final entropy term                ...      0.02592071 Eh     16.27 kcal/mol

In case the symmetry of your molecule has not been determined correctly
or in case you have a reason to use a different symmetry number we print
out the resulting rotational entropy values for sn=1,12 :
 --------------------------------------------------------
|  sn= 1 | S(rot)=             -inf Eh      -inf kcal/mol|
|  sn= 2 | S(rot)=             -inf Eh      -inf kcal/mol|
|  sn= 3 | S(rot)=             -inf Eh      -inf kcal/mol|
|  sn= 4 | S(rot)=             -inf Eh      -inf kcal/mol|
|  sn= 5 | S(rot)=             -inf Eh      -inf kcal/mol|
|  sn= 6 | S(rot)=             -inf Eh      -inf kcal/mol|
|  sn= 7 | S(rot)=             -inf Eh      -inf kcal/mol|
|  sn= 8 | S(rot)=             -inf Eh      -inf kcal/mol|
|  sn= 9 | S(rot)=             -inf Eh      -inf kcal/mol|
|  sn=10 | S(rot)=             -inf Eh      -inf kcal/mol|
|  sn=11 | S(rot)=             -inf Eh      -inf kcal/mol|
|  sn=12 | S(rot)=             -inf Eh      -inf kcal/mol|
 --------------------------------------------------------

-------------------
GIBBS FREE ENERGY
-------------------

The Gibbs free energy is G = H - T*S

Total enthalpy                    ...   -796.45528356 Eh
Total entropy correction          ...     -0.02592071 Eh    -16.27 kcal/mol
-----------------------------------------------------------------------
Final Gibbs free energy         ...   -796.48120426 Eh

For completeness - the Gibbs free energy minus the electronic energy
G-E(el)                           ...     -0.02090368 Eh    -13.12 kcal/mol

                             ****ORCA TERMINATED NORMALLY****
TOTAL RUN TIME: 0 days 0 hours 0 minutes 42 seconds 440 msec
