                         Program Version 4.2.0 -  RELEASE  -
|  1> #
|  2> # 33_SO tpss/aug-cc-pvt(+d)z
|  3> #
|  4> ! tpss d3bj aug-cc-pvt(+d)z def2/j opt xyzfile numfreq
|  5>
|  6> *xyz 0 3
|  7> S            0.000000327         -0.000000134          0.002547174
|  8> O           -0.000000327          0.000000134          1.483667376
|  9> *
| 10>
| 11> %pal
| 12> nprocs 24
| 13> end
| 14>
| 15>
| 16>                          ****END OF INPUT****
 Total Charge           Charge          ....    0
 Multiplicity           Mult            ....    3
 Number of Electrons    NEL             ....   24
Dispersion correction           -0.000734480
FINAL SINGLE POINT ENERGY      -473.452642512943
Dispersion correction            ... done
Dispersion correction           -0.000734411
FINAL SINGLE POINT ENERGY      -473.452951435216
Dispersion correction            ... done
Dispersion correction           -0.000734341
FINAL SINGLE POINT ENERGY      -473.453051841613
Dispersion correction            ... done
Dispersion correction           -0.000734336
FINAL SINGLE POINT ENERGY      -473.453051887719
Dispersion correction            ... done
                    ***********************HURRAY********************

CARTESIAN COORDINATES (ANGSTROEM)
---------------------------------
  S      0.000000   -0.000000   -0.008090
  O     -0.000000    0.000000    1.494305

 Multiplicity           Mult            ....    3
 Number of Electrons    NEL             ....   24
 Basis Dimension        Dim             ....  101

ORBITAL ENERGIES
----------------
                 SPIN UP ORBITALS
  NO   OCC          E(Eh)            E(eV)
   0   1.0000     -88.481306     -2407.6987
   1   1.0000     -18.964924      -516.0618
   2   1.0000      -7.830035      -213.0661
   3   1.0000      -5.809882      -158.0949
   4   1.0000      -5.809419      -158.0823
   5   1.0000      -5.809419      -158.0823
   6   1.0000      -1.017227       -27.6801
   7   1.0000      -0.637681       -17.3522
   8   1.0000      -0.414343       -11.2748
   9   1.0000      -0.409278       -11.1370
  10   1.0000      -0.409278       -11.1370
  11   1.0000      -0.233318        -6.3489
  12   1.0000      -0.233318        -6.3489
  13   0.0000      -0.043475        -1.1830
  14   0.0000       0.010692         0.2909
  15   0.0000       0.037096         1.0094
  16   0.0000       0.037096         1.0094
  17   0.0000       0.060564         1.6480

                 SPIN DOWN ORBITALS
  NO   OCC          E(Eh)            E(eV)
   0   1.0000     -88.475215     -2407.5330
   1   1.0000     -18.943112      -515.4683
   2   1.0000      -7.824413      -212.9131
   3   1.0000      -5.806650      -158.0070
   4   1.0000      -5.798601      -157.7879
   5   1.0000      -5.798601      -157.7879
   6   1.0000      -0.983590       -26.7648
   7   1.0000      -0.581840       -15.8327
   8   1.0000      -0.389009       -10.5855
   9   1.0000      -0.358008        -9.7419
  10   1.0000      -0.358008        -9.7419
  11   0.0000      -0.161309        -4.3894
  12   0.0000      -0.161309        -4.3894
  13   0.0000      -0.026276        -0.7150
  14   0.0000       0.023710         0.6452
  15   0.0000       0.049991         1.3603

MULLIKEN ATOMIC CHARGES AND SPIN POPULATIONS
--------------------------------------------
   0 S :    0.483939    1.294303
   1 O :   -0.483939    0.705697
Sum of atomic charges         :    0.0000000

LOEWDIN ATOMIC CHARGES AND SPIN POPULATIONS
-------------------------------------------
   0 S :    0.415332    1.248514
   1 O :   -0.415332    0.751486

  Mayer bond orders larger than 0.100000
B(  0-S ,  1-O ) :   1.8471

Dispersion correction           -0.000734336
FINAL SINGLE POINT ENERGY      -473.453049294173

DIPOLE MOMENT
-------------
                                X             Y             Z
Electronic contribution:      0.00000      -0.00000      -0.57919
Nuclear contribution   :     -0.00000       0.00000       0.02930
                        -----------------------------------------
Total Dipole Moment    :      0.00000      -0.00000      -0.54988
                        -----------------------------------------
Magnitude (a.u.)       :      0.54988
Magnitude (Debye)      :      1.39769

VIBRATIONAL FREQUENCIES
-----------------------

Scaling factor for frequencies =  1.000000000 (already applied!)

   0:         0.00 cm**-1
   1:         0.00 cm**-1
   2:         0.00 cm**-1
   3:         0.00 cm**-1
   4:         0.00 cm**-1
   5:      1111.51 cm**-1

IR SPECTRUM
-----------

 Mode    freq (cm**-1)   T**2         TX         TY         TZ
-------------------------------------------------------------------
   5:      1111.51   16.429248  ( -0.000003   0.000001   4.053301)

--------------------------
THERMOCHEMISTRY AT 298.15K
--------------------------

Temperature         ... 298.15 K
Pressure            ... 1.00 atm
Total Mass          ... 48.06 AMU
The molecule is recognized as being linear

Throughout the following assumptions are being made:
  (1) The electronic state is orbitally nondegenerate
      but the spin degeneracy is treated
  (2) There are no thermally accessible electronically excited states
  (3) Hindered rotations indicated by low frequency modes are not
      treated as such but are treated as vibrations and this may
      cause some error
  (4) All equations used are the standard statistical mechanics
      equations for an ideal gas
  (5) All vibrations are strictly harmonic

freq.    1111.51  E(vib)   ...       0.01

------------
INNER ENERGY
------------

The inner energy is: U= E(el) + E(ZPE) + E(vib) + E(rot) + E(trans)
    E(el)   - is the total energy from the electronic structure calculation
              = E(kin-el) + E(nuc-el) + E(el-el) + E(nuc-nuc)
    E(ZPE)  - the the zero temperature vibrational energy from the frequency calculation
    E(vib)  - the the finite temperature correction to E(ZPE) due to population
              of excited vibrational states
    E(rot)  - is the rotational thermal energy
    E(trans)- is the translational thermal energy

Summary of contributions to the inner energy U:
Electronic energy                ...   -473.45305451 Eh
Zero point energy                ...      0.00253221 Eh       1.59 kcal/mol
Thermal vibrational correction   ...      0.00002383 Eh       0.01 kcal/mol
Thermal rotational correction    ...      0.00094418 Eh       0.59 kcal/mol
Thermal translational correction ...      0.00141627 Eh       0.89 kcal/mol
-----------------------------------------------------------------------
Total thermal energy                   -473.44813801 Eh

Summary of corrections to the electronic energy:
(perhaps to be used in another calculation)
Total thermal correction                  0.00238428 Eh       1.50 kcal/mol
Non-thermal (ZPE) correction              0.00253221 Eh       1.59 kcal/mol
-----------------------------------------------------------------------
Total correction                          0.00491650 Eh       3.09 kcal/mol

--------
ENTHALPY
--------

The enthalpy is H = U + kB*T
                kB is Boltzmann's constant
Total free energy                 ...   -473.44813801 Eh
Thermal Enthalpy correction       ...      0.00094421 Eh       0.59 kcal/mol
-----------------------------------------------------------------------
Total Enthalpy                    ...   -473.44719380 Eh

Note: Rotational entropy computed according to Herzberg
Infrared and Raman Spectra, Chapter V,1, Van Nostrand Reinhold, 1945
Point Group:  Cinfv, Symmetry Number:   1
Rotational constants in cm-1:     0.000000     0.699757     0.699757

Vibrational entropy computed according to the QRRHO of S. Grimme
Chem.Eur.J. 2012 18 9955

-------
ENTROPY
-------

The entropy contributions are T*S = T*(S(el)+S(vib)+S(rot)+S(trans))
     S(el)   - electronic entropy
     S(vib)  - vibrational entropy
     S(rot)  - rotational entropy
     S(trans)- translational entropy
The entropies will be listed as mutliplied by the temperature to get
units of energy

Electronic entropy                ...      0.00103729 Eh      0.65 kcal/mol
Vibrational entropy               ...      0.00002828 Eh      0.02 kcal/mol
Rotational entropy                ...      0.00631736 Eh      3.96 kcal/mol
Translational entropy             ...      0.01783348 Eh     11.19 kcal/mol
-----------------------------------------------------------------------
Final entropy term                ...      0.02521640 Eh     15.82 kcal/mol

In case the symmetry of your molecule has not been determined correctly
or in case you have a reason to use a different symmetry number we print
out the resulting rotational entropy values for sn=1,12 :
 --------------------------------------------------------
|  sn= 1 | S(rot)=             -nan Eh      -nan kcal/mol|
|  sn= 2 | S(rot)=             -nan Eh      -nan kcal/mol|
|  sn= 3 | S(rot)=             -nan Eh      -nan kcal/mol|
|  sn= 4 | S(rot)=             -nan Eh      -nan kcal/mol|
|  sn= 5 | S(rot)=             -nan Eh      -nan kcal/mol|
|  sn= 6 | S(rot)=             -nan Eh      -nan kcal/mol|
|  sn= 7 | S(rot)=             -nan Eh      -nan kcal/mol|
|  sn= 8 | S(rot)=             -nan Eh      -nan kcal/mol|
|  sn= 9 | S(rot)=             -nan Eh      -nan kcal/mol|
|  sn=10 | S(rot)=             -nan Eh      -nan kcal/mol|
|  sn=11 | S(rot)=             -nan Eh      -nan kcal/mol|
|  sn=12 | S(rot)=             -nan Eh      -nan kcal/mol|
 --------------------------------------------------------

-------------------
GIBBS FREE ENERGY
-------------------

The Gibbs free energy is G = H - T*S

Total enthalpy                    ...   -473.44719380 Eh
Total entropy correction          ...     -0.02521640 Eh    -15.82 kcal/mol
-----------------------------------------------------------------------
Final Gibbs free energy         ...   -473.47241021 Eh

For completeness - the Gibbs free energy minus the electronic energy
G-E(el)                           ...     -0.01935570 Eh    -12.15 kcal/mol

                             ****ORCA TERMINATED NORMALLY****
TOTAL RUN TIME: 0 days 0 hours 0 minutes 44 seconds 866 msec
