                         Program Version 4.2.0 -  RELEASE  -
|  1> #
|  2> # 01_BH3 tpssh/aug-cc-pvt(+d)z
|  3> #
|  4> ! tpssh d3bj aug-cc-pvt(+d)z def2/jk opt xyzfile numfreq
|  5>
|  6> *xyz 0 1
|  7>   B   0.00058990711441     -0.00015241661398     -0.19828246925039
|  8>   H   -0.40433656286270     -1.04111721537816      0.22036101748058
|  9>   H   -0.17315147828119      1.00175941266214      0.42559464068470
| 10>   H   0.57689815002948      0.03951021333001     -1.24154545391489
| 11> *
| 12>
| 13> %pal
| 14> nprocs 24
| 15> end
| 16>
| 17>
| 18>                          ****END OF INPUT****
 Total Charge           Charge          ....    0
 Multiplicity           Mult            ....    1
 Number of Electrons    NEL             ....    8
Dispersion correction           -0.000895560
FINAL SINGLE POINT ENERGY       -26.625479193842
Dispersion correction            ... done
Dispersion correction           -0.000895514
FINAL SINGLE POINT ENERGY       -26.625481683065
Dispersion correction            ... done
Dispersion correction           -0.000895480
FINAL SINGLE POINT ENERGY       -26.625480950198
Dispersion correction            ... done
Dispersion correction           -0.000895508
FINAL SINGLE POINT ENERGY       -26.625483639072
Dispersion correction            ... done
                    ***********************HURRAY********************

CARTESIAN COORDINATES (ANGSTROEM)
---------------------------------
  B     -0.000032   -0.000051   -0.198626
  H     -0.403545   -1.039549    0.219899
  H     -0.172698    1.000156    0.424776
  H      0.576274    0.039444   -1.239922

 Multiplicity           Mult            ....    1
 Number of Electrons    NEL             ....    8
 Basis Dimension        Dim             ....  115

ORBITAL ENERGIES
----------------

  NO   OCC          E(Eh)            E(eV)
   0   2.0000      -6.713408      -182.6811
   1   2.0000      -0.502839       -13.6829
   2   2.0000      -0.341256        -9.2860
   3   2.0000      -0.340901        -9.2764
   4   0.0000      -0.085653        -2.3307
   5   0.0000       0.005226         0.1422
   6   0.0000       0.026657         0.7254
   7   0.0000       0.026718         0.7270
   8   0.0000       0.041889         1.1399

MULLIKEN ATOMIC CHARGES
-----------------------
   0 B :   -0.072178
   1 H :    0.032913
   2 H :    0.030726
   3 H :    0.008538
Sum of atomic charges:   -0.0000000

LOEWDIN ATOMIC CHARGES
----------------------
   0 B :    0.600444
   1 H :   -0.199731
   2 H :   -0.199917
   3 H :   -0.200797

  Mayer bond orders larger than 0.100000
B(  0-B ,  1-H ) :   0.9511 B(  0-B ,  2-H ) :   0.9592 B(  0-B ,  3-H ) :   0.9629

Dispersion correction           -0.000895507
FINAL SINGLE POINT ENERGY       -26.625483639885

DIPOLE MOMENT
-------------
                                X             Y             Z
Electronic contribution:     -0.00022       0.00020      -0.00228
Nuclear contribution   :      0.00010       0.00016       0.00050
                        -----------------------------------------
Total Dipole Moment    :     -0.00012       0.00036      -0.00178
                        -----------------------------------------
Magnitude (a.u.)       :      0.00182
Magnitude (Debye)      :      0.00463

VIBRATIONAL FREQUENCIES
-----------------------

Scaling factor for frequencies =  1.000000000 (already applied!)

   0:         0.00 cm**-1
   1:         0.00 cm**-1
   2:         0.00 cm**-1
   3:         0.00 cm**-1
   4:         0.00 cm**-1
   5:         0.00 cm**-1
   6:      1164.35 cm**-1
   7:      1219.77 cm**-1
   8:      1220.97 cm**-1
   9:      2559.74 cm**-1
  10:      2691.40 cm**-1
  11:      2693.01 cm**-1

IR SPECTRUM
-----------

 Mode    freq (cm**-1)   T**2         TX         TY         TZ
-------------------------------------------------------------------
   6:      1164.35   83.123312  ( -7.932849   1.217469  -4.325620)
   7:      1219.77   15.021815  ( -1.826258  -1.982344   2.785123)
   8:      1220.97   14.692293  ( -0.550817   3.179018   2.069477)
   9:      2559.74    0.025846  ( -0.036712   0.004761   0.156447)
  10:      2691.40  138.084965  (  1.731745  -9.847081  -6.174223)
  11:      2693.01  137.249974  (  5.579779   6.138469  -8.272559)

--------------------------
THERMOCHEMISTRY AT 298.15K
--------------------------

Temperature         ... 298.15 K
Pressure            ... 1.00 atm
Total Mass          ... 13.83 AMU

Throughout the following assumptions are being made:
  (1) The electronic state is orbitally nondegenerate
  (2) There are no thermally accessible electronically excited states
  (3) Hindered rotations indicated by low frequency modes are not
      treated as such but are treated as vibrations and this may
      cause some error
  (4) All equations used are the standard statistical mechanics
      equations for an ideal gas
  (5) All vibrations are strictly harmonic

freq.    1164.35  E(vib)   ...       0.01
freq.    1219.77  E(vib)   ...       0.01
freq.    1220.97  E(vib)   ...       0.01
freq.    2559.74  E(vib)   ...       0.00
freq.    2691.40  E(vib)   ...       0.00
freq.    2693.01  E(vib)   ...       0.00

------------
INNER ENERGY
------------

The inner energy is: U= E(el) + E(ZPE) + E(vib) + E(rot) + E(trans)
    E(el)   - is the total energy from the electronic structure calculation
              = E(kin-el) + E(nuc-el) + E(el-el) + E(nuc-nuc)
    E(ZPE)  - the the zero temperature vibrational energy from the frequency calculation
    E(vib)  - the the finite temperature correction to E(ZPE) due to population
              of excited vibrational states
    E(rot)  - is the rotational thermal energy
    E(trans)- is the translational thermal energy

Summary of contributions to the inner energy U:
Electronic energy                ...    -26.62548364 Eh
Zero point energy                ...      0.02631110 Eh      16.51 kcal/mol
Thermal vibrational correction   ...      0.00005032 Eh       0.03 kcal/mol
Thermal rotational correction    ...      0.00141627 Eh       0.89 kcal/mol
Thermal translational correction ...      0.00141627 Eh       0.89 kcal/mol
-----------------------------------------------------------------------
Total thermal energy                    -26.59628967 Eh

Summary of corrections to the electronic energy:
(perhaps to be used in another calculation)
Total thermal correction                  0.00288286 Eh       1.81 kcal/mol
Non-thermal (ZPE) correction              0.02631110 Eh      16.51 kcal/mol
-----------------------------------------------------------------------
Total correction                          0.02919397 Eh      18.32 kcal/mol

--------
ENTHALPY
--------

The enthalpy is H = U + kB*T
                kB is Boltzmann's constant
Total free energy                 ...    -26.59628967 Eh
Thermal Enthalpy correction       ...      0.00094421 Eh       0.59 kcal/mol
-----------------------------------------------------------------------
Total Enthalpy                    ...    -26.59534546 Eh

Note: Only C1 symmetry has been detected, increase convergence thresholds
      if your molecule has a higher symmetry. Symmetry factor of 1.0 is
      used for the rotational entropy correction.

Note: Rotational entropy computed according to Herzberg
Infrared and Raman Spectra, Chapter V,1, Van Nostrand Reinhold, 1945
Point Group:  C1, Symmetry Number:   1
Rotational constants in cm-1:     7.860644     7.859534     3.930045

Vibrational entropy computed according to the QRRHO of S. Grimme
Chem.Eur.J. 2012 18 9955

-------
ENTROPY
-------

The entropy contributions are T*S = T*(S(el)+S(vib)+S(rot)+S(trans))
     S(el)   - electronic entropy
     S(vib)  - vibrational entropy
     S(rot)  - rotational entropy
     S(trans)- translational entropy
The entropies will be listed as mutliplied by the temperature to get
units of energy

Electronic entropy                ...      0.00000000 Eh      0.00 kcal/mol
Vibrational entropy               ...      0.00005902 Eh      0.04 kcal/mol
Rotational entropy                ...      0.00691797 Eh      4.34 kcal/mol
Translational entropy             ...      0.01606980 Eh     10.08 kcal/mol
-----------------------------------------------------------------------
Final entropy term                ...      0.02304679 Eh     14.46 kcal/mol

In case the symmetry of your molecule has not been determined correctly
or in case you have a reason to use a different symmetry number we print
out the resulting rotational entropy values for sn=1,12 :
 --------------------------------------------------------
|  sn= 1 | S(rot)=       0.00691797 Eh      4.34 kcal/mol|
|  sn= 2 | S(rot)=       0.00626352 Eh      3.93 kcal/mol|
|  sn= 3 | S(rot)=       0.00588068 Eh      3.69 kcal/mol|
|  sn= 4 | S(rot)=       0.00560906 Eh      3.52 kcal/mol|
|  sn= 5 | S(rot)=       0.00539837 Eh      3.39 kcal/mol|
|  sn= 6 | S(rot)=       0.00522623 Eh      3.28 kcal/mol|
|  sn= 7 | S(rot)=       0.00508068 Eh      3.19 kcal/mol|
|  sn= 8 | S(rot)=       0.00495460 Eh      3.11 kcal/mol|
|  sn= 9 | S(rot)=       0.00484340 Eh      3.04 kcal/mol|
|  sn=10 | S(rot)=       0.00474392 Eh      2.98 kcal/mol|
|  sn=11 | S(rot)=       0.00465393 Eh      2.92 kcal/mol|
|  sn=12 | S(rot)=       0.00457177 Eh      2.87 kcal/mol|
 --------------------------------------------------------

-------------------
GIBBS FREE ENERGY
-------------------

The Gibbs free energy is G = H - T*S

Total enthalpy                    ...    -26.59534546 Eh
Total entropy correction          ...     -0.02304679 Eh    -14.46 kcal/mol
-----------------------------------------------------------------------
Final Gibbs free energy         ...    -26.61839226 Eh

For completeness - the Gibbs free energy minus the electronic energy
G-E(el)                           ...      0.00709138 Eh      4.45 kcal/mol

                             ****ORCA TERMINATED NORMALLY****
TOTAL RUN TIME: 0 days 0 hours 0 minutes 41 seconds 172 msec
