                         Program Version 4.2.0 -  RELEASE  -
|  1> #
|  2> # 02_C2H2 tpssh/aug-cc-pvt(+d)z
|  3> #
|  4> ! tpssh d3bj aug-cc-pvt(+d)z def2/jk opt xyzfile numfreq usesym
|  5>
|  6> *xyz 0 1
|  7> C            0.000000000          0.000000000         -0.598584835
|  8> C            0.000000000          0.000000000          0.598584827
|  9> H            0.000000000          0.000000000         -1.664429739
| 10> H            0.000000000          0.000000000          1.664429747
| 11> *
| 12>
| 13> %pal
| 14> nprocs 24
| 15> end
| 16>
| 17>
| 18>                          ****END OF INPUT****
 Total Charge           Charge          ....    0
 Multiplicity           Mult            ....    1
 Number of Electrons    NEL             ....   14
Dispersion correction           -0.001444487
FINAL SINGLE POINT ENERGY       -77.364681178628
Dispersion correction            ... done
Dispersion correction           -0.001444716
FINAL SINGLE POINT ENERGY       -77.364697844523
Dispersion correction            ... done
                    ***********************HURRAY********************

CARTESIAN COORDINATES (ANGSTROEM)
---------------------------------
  C      0.000000   -0.000000   -0.599218
  C     -0.000000    0.000000    0.599218
  H      0.000000   -0.000000   -1.662648
  H      0.000000   -0.000000    1.662648

 Multiplicity           Mult            ....    1
 Number of Electrons    NEL             ....   14
 Basis Dimension        Dim             ....  138

ORBITAL ENERGIES
----------------

  NO   OCC          E(Eh)            E(eV)
   0   2.0000     -10.123900      -275.4853
   1   2.0000     -10.121540      -275.4211
   2   2.0000      -0.737565       -20.0702
   3   2.0000      -0.556568       -15.1450
   4   2.0000      -0.482352       -13.1255
   5   2.0000      -0.283553        -7.7159
   6   2.0000      -0.283553        -7.7159
   7   0.0000       0.002127         0.0579
   8   0.0000       0.006070         0.1652
   9   0.0000       0.006070         0.1652
  10   0.0000       0.011439         0.3113
  11   0.0000       0.049162         1.3378

MULLIKEN ATOMIC CHARGES
-----------------------
   0 C :   -0.514366
   1 C :   -0.514366
   2 H :    0.514365
   3 H :    0.514367
Sum of atomic charges:   -0.0000000

LOEWDIN ATOMIC CHARGES
----------------------
   0 C :    0.308037
   1 C :    0.308037
   2 H :   -0.308037
   3 H :   -0.308037

  Mayer bond orders larger than 0.100000
B(  0-C ,  1-C ) :   1.8147 B(  0-C ,  2-H ) :   0.6779 B(  1-C ,  3-H ) :   0.6779

Dispersion correction           -0.001444689
FINAL SINGLE POINT ENERGY       -77.364698178637

DIPOLE MOMENT
-------------
                                X             Y             Z
Electronic contribution:     -0.00000       0.00000      -0.00000
Nuclear contribution   :      0.00000      -0.00000       0.00000
                        -----------------------------------------
Total Dipole Moment    :      0.00000      -0.00000      -0.00000
                        -----------------------------------------
Magnitude (a.u.)       :      0.00000
Magnitude (Debye)      :      0.00000

VIBRATIONAL FREQUENCIES
-----------------------

Scaling factor for frequencies =  1.000000000 (already applied!)

   0:         0.00 cm**-1
   1:         0.00 cm**-1
   2:         0.00 cm**-1
   3:         0.00 cm**-1
   4:         0.00 cm**-1
   5:       653.85 cm**-1
   6:       653.90 cm**-1
   7:       786.32 cm**-1
   8:       786.33 cm**-1
   9:      2058.98 cm**-1
  10:      3409.74 cm**-1
  11:      3510.49 cm**-1

IR SPECTRUM
-----------

 Mode    freq (cm**-1)   T**2         TX         TY         TZ
-------------------------------------------------------------------
   5:       653.85    0.000000  ( -0.000213  -0.000394   0.000003)
   6:       653.90    0.000000  (  0.000214   0.000167  -0.000007)
   7:       786.32  129.696136  (  8.019461   8.086061  -0.000005)
   8:       786.33  129.696459  (  8.086071  -8.019471  -0.000003)
   9:      2058.98    0.000000  ( -0.000002  -0.000007  -0.000002)
  10:      3409.74   95.686429  (  0.000009  -0.000000   9.781944)
  11:      3510.49    0.000000  ( -0.000001   0.000005  -0.000059)

--------------------------
THERMOCHEMISTRY AT 298.15K
--------------------------

Temperature         ... 298.15 K
Pressure            ... 1.00 atm
Total Mass          ... 26.04 AMU
The molecule is recognized as being linear

Throughout the following assumptions are being made:
  (1) The electronic state is orbitally nondegenerate
  (2) There are no thermally accessible electronically excited states
  (3) Hindered rotations indicated by low frequency modes are not
      treated as such but are treated as vibrations and this may
      cause some error
  (4) All equations used are the standard statistical mechanics
      equations for an ideal gas
  (5) All vibrations are strictly harmonic

freq.     653.85  E(vib)   ...       0.08
freq.     653.90  E(vib)   ...       0.08
freq.     786.32  E(vib)   ...       0.05
freq.     786.33  E(vib)   ...       0.05
freq.    2058.98  E(vib)   ...       0.00
freq.    3409.74  E(vib)   ...       0.00
freq.    3510.49  E(vib)   ...       0.00

------------
INNER ENERGY
------------

The inner energy is: U= E(el) + E(ZPE) + E(vib) + E(rot) + E(trans)
    E(el)   - is the total energy from the electronic structure calculation
              = E(kin-el) + E(nuc-el) + E(el-el) + E(nuc-nuc)
    E(ZPE)  - the the zero temperature vibrational energy from the frequency calculation
    E(vib)  - the the finite temperature correction to E(ZPE) due to population
              of excited vibrational states
    E(rot)  - is the rotational thermal energy
    E(trans)- is the translational thermal energy

Summary of contributions to the inner energy U:
Electronic energy                ...    -77.36469818 Eh
Zero point energy                ...      0.02701817 Eh      16.95 kcal/mol
Thermal vibrational correction   ...      0.00043065 Eh       0.27 kcal/mol
Thermal rotational correction    ...      0.00094418 Eh       0.59 kcal/mol
Thermal translational correction ...      0.00141627 Eh       0.89 kcal/mol
-----------------------------------------------------------------------
Total thermal energy                    -77.33488891 Eh

Summary of corrections to the electronic energy:
(perhaps to be used in another calculation)
Total thermal correction                  0.00279110 Eh       1.75 kcal/mol
Non-thermal (ZPE) correction              0.02701817 Eh      16.95 kcal/mol
-----------------------------------------------------------------------
Total correction                          0.02980927 Eh      18.71 kcal/mol

--------
ENTHALPY
--------

The enthalpy is H = U + kB*T
                kB is Boltzmann's constant
Total free energy                 ...    -77.33488891 Eh
Thermal Enthalpy correction       ...      0.00094421 Eh       0.59 kcal/mol
-----------------------------------------------------------------------
Total Enthalpy                    ...    -77.33394470 Eh

Note: Rotational entropy computed according to Herzberg
Infrared and Raman Spectra, Chapter V,1, Van Nostrand Reinhold, 1945
Point Group:  Dinfh, Symmetry Number:   2
Rotational constants in cm-1:     0.000000     1.187290     1.187290

Vibrational entropy computed according to the QRRHO of S. Grimme
Chem.Eur.J. 2012 18 9955

-------
ENTROPY
-------

The entropy contributions are T*S = T*(S(el)+S(vib)+S(rot)+S(trans))
     S(el)   - electronic entropy
     S(vib)  - vibrational entropy
     S(rot)  - rotational entropy
     S(trans)- translational entropy
The entropies will be listed as mutliplied by the temperature to get
units of energy

Electronic entropy                ...      0.00000000 Eh      0.00 kcal/mol
Vibrational entropy               ...      0.00055637 Eh      0.35 kcal/mol
Rotational entropy                ...      0.00516372 Eh      3.24 kcal/mol
Translational entropy             ...      0.01696549 Eh     10.65 kcal/mol
-----------------------------------------------------------------------
Final entropy term                ...      0.02268558 Eh     14.24 kcal/mol

In case the symmetry of your molecule has not been determined correctly
or in case you have a reason to use a different symmetry number we print
out the resulting rotational entropy values for sn=1,12 :
 --------------------------------------------------------
|  sn= 1 | S(rot)=      -0.00840458 Eh     -5.27 kcal/mol|
|  sn= 2 | S(rot)=      -0.00905904 Eh     -5.68 kcal/mol|
|  sn= 3 | S(rot)=      -0.00944187 Eh     -5.92 kcal/mol|
|  sn= 4 | S(rot)=      -0.00971349 Eh     -6.10 kcal/mol|
|  sn= 5 | S(rot)=      -0.00992418 Eh     -6.23 kcal/mol|
|  sn= 6 | S(rot)=      -0.01009632 Eh     -6.34 kcal/mol|
|  sn= 7 | S(rot)=      -0.01024187 Eh     -6.43 kcal/mol|
|  sn= 8 | S(rot)=      -0.01036795 Eh     -6.51 kcal/mol|
|  sn= 9 | S(rot)=      -0.01047916 Eh     -6.58 kcal/mol|
|  sn=10 | S(rot)=      -0.01057864 Eh     -6.64 kcal/mol|
|  sn=11 | S(rot)=      -0.01066863 Eh     -6.69 kcal/mol|
|  sn=12 | S(rot)=      -0.01075078 Eh     -6.75 kcal/mol|
 --------------------------------------------------------

-------------------
GIBBS FREE ENERGY
-------------------

The Gibbs free energy is G = H - T*S

Total enthalpy                    ...    -77.33394470 Eh
Total entropy correction          ...     -0.02268558 Eh    -14.24 kcal/mol
-----------------------------------------------------------------------
Final Gibbs free energy         ...    -77.35663027 Eh

For completeness - the Gibbs free energy minus the electronic energy
G-E(el)                           ...      0.00806791 Eh      5.06 kcal/mol

                             ****ORCA TERMINATED NORMALLY****
TOTAL RUN TIME: 0 days 0 hours 1 minutes 4 seconds 908 msec
