                         Program Version 4.2.0 -  RELEASE  -
|  1> #
|  2> # 03_C2H4 tpssh/aug-cc-pvt(+d)z
|  3> #
|  4> ! tpssh d3bj aug-cc-pvt(+d)z def2/jk opt xyzfile numfreq
|  5>
|  6> *xyz 0 1
|  7> C           -0.660880719         -0.052042050         -0.000518813
|  8> C            0.660811459          0.052037749          0.000552241
|  9> H           -1.234160473          0.004039688         -0.920739055
| 10> H           -1.219846088         -0.197224842          0.918756738
| 11> H            1.219778335          0.197219347         -0.918722591
| 12> H            1.234090068         -0.004046487          0.920773141
| 13> *
| 14>
| 15> %pal
| 16> nprocs 24
| 17> end
| 18>
| 19>
| 20>                          ****END OF INPUT****
 Total Charge           Charge          ....    0
 Multiplicity           Mult            ....    1
 Number of Electrons    NEL             ....   16
Dispersion correction           -0.002542583
FINAL SINGLE POINT ENERGY       -78.626983525123
Dispersion correction            ... done
Dispersion correction           -0.002542556
FINAL SINGLE POINT ENERGY       -78.626996582206
Dispersion correction            ... done
Dispersion correction           -0.002542359
FINAL SINGLE POINT ENERGY       -78.626998728704
Dispersion correction            ... done
Dispersion correction           -0.002542193
FINAL SINGLE POINT ENERGY       -78.626999095100
Dispersion correction            ... done
                    ***********************HURRAY********************

CARTESIAN COORDINATES (ANGSTROEM)
---------------------------------
  C     -0.661296   -0.051978   -0.000513
  C      0.661227    0.051973    0.000546
  H     -1.236842    0.003467   -0.917690
  H     -1.222534   -0.197123    0.915668
  H      1.222465    0.197118   -0.915634
  H      1.236773   -0.003473    0.917724

 Multiplicity           Mult            ....    1
 Number of Electrons    NEL             ....   16
 Basis Dimension        Dim             ....  184

ORBITAL ENERGIES
----------------

  NO   OCC          E(Eh)            E(eV)
   0   2.0000     -10.115474      -275.2560
   1   2.0000     -10.114637      -275.2333
   2   2.0000      -0.744808       -20.2672
   3   2.0000      -0.566454       -15.4140
   4   2.0000      -0.454931       -12.3793
   5   2.0000      -0.404684       -11.0120
   6   2.0000      -0.342612        -9.3230
   7   2.0000      -0.265284        -7.2188
   8   0.0000      -0.016401        -0.4463
   9   0.0000      -0.000676        -0.0184
  10   0.0000       0.015965         0.4344
  11   0.0000       0.018492         0.5032
  12   0.0000       0.046524         1.2660

MULLIKEN ATOMIC CHARGES
-----------------------
   0 C :   -0.490479
   1 C :   -0.490479
   2 H :    0.259455
   3 H :    0.231024
   4 H :    0.231024
   5 H :    0.259455
Sum of atomic charges:    0.0000000

LOEWDIN ATOMIC CHARGES
----------------------
   0 C :    0.468811
   1 C :    0.468811
   2 H :   -0.234353
   3 H :   -0.234458
   4 H :   -0.234458
   5 H :   -0.234353

  Mayer bond orders larger than 0.100000
B(  0-C ,  1-C ) :   1.7027 B(  0-C ,  2-H ) :   0.8789 B(  0-C ,  3-H ) :   0.9011
B(  1-C ,  4-H ) :   0.9011 B(  1-C ,  5-H ) :   0.8789

Dispersion correction           -0.002542165
FINAL SINGLE POINT ENERGY       -78.626998925241

DIPOLE MOMENT
-------------
                                X             Y             Z
Electronic contribution:     -0.00000      -0.00000      -0.00000
Nuclear contribution   :      0.00000       0.00000       0.00000
                        -----------------------------------------
Total Dipole Moment    :     -0.00000       0.00000      -0.00000
                        -----------------------------------------
Magnitude (a.u.)       :      0.00000
Magnitude (Debye)      :      0.00000

VIBRATIONAL FREQUENCIES
-----------------------

Scaling factor for frequencies =  1.000000000 (already applied!)

   0:         0.00 cm**-1
   1:         0.00 cm**-1
   2:         0.00 cm**-1
   3:         0.00 cm**-1
   4:         0.00 cm**-1
   5:         0.00 cm**-1
   6:       822.78 cm**-1
   7:       973.17 cm**-1
   8:       981.18 cm**-1
   9:      1067.40 cm**-1
  10:      1245.74 cm**-1
  11:      1383.24 cm**-1
  12:      1482.84 cm**-1
  13:      1686.20 cm**-1
  14:      3119.64 cm**-1
  15:      3135.72 cm**-1
  16:      3189.11 cm**-1
  17:      3218.10 cm**-1

IR SPECTRUM
-----------

 Mode    freq (cm**-1)   T**2         TX         TY         TZ
-------------------------------------------------------------------
   6:       822.78    0.012697  (  0.071408   0.033567  -0.080441)
   7:       973.17    0.000034  (  0.004802   0.003086  -0.001354)
   8:       981.18  101.927197  ( -0.761940  10.014376   1.029041)
   9:      1067.40    0.001834  (  0.036509  -0.018591  -0.012480)
  10:      1245.74    0.002415  (  0.046598   0.003969  -0.015091)
  11:      1383.24    0.000000  (  0.000020   0.000005  -0.000000)
  12:      1482.84    7.133994  ( -2.659861  -0.241979  -0.024033)
  13:      1686.20    0.000000  (  0.000068   0.000007  -0.000028)
  14:      3119.64   20.119910  ( -4.471295  -0.355597   0.031384)
  15:      3135.72    0.000000  (  0.000280   0.000035  -0.000133)
  16:      3189.11    0.000915  (  0.030003   0.002337  -0.003040)
  17:      3218.10   20.399857  (  0.105407  -0.463018   4.491588)

--------------------------
THERMOCHEMISTRY AT 298.15K
--------------------------

Temperature         ... 298.15 K
Pressure            ... 1.00 atm
Total Mass          ... 28.05 AMU

Throughout the following assumptions are being made:
  (1) The electronic state is orbitally nondegenerate
  (2) There are no thermally accessible electronically excited states
  (3) Hindered rotations indicated by low frequency modes are not
      treated as such but are treated as vibrations and this may
      cause some error
  (4) All equations used are the standard statistical mechanics
      equations for an ideal gas
  (5) All vibrations are strictly harmonic

freq.     822.78  E(vib)   ...       0.05
freq.     973.17  E(vib)   ...       0.03
freq.     981.18  E(vib)   ...       0.02
freq.    1067.40  E(vib)   ...       0.02
freq.    1245.74  E(vib)   ...       0.01
freq.    1383.24  E(vib)   ...       0.00
freq.    1482.84  E(vib)   ...       0.00
freq.    1686.20  E(vib)   ...       0.00
freq.    3119.64  E(vib)   ...       0.00
freq.    3135.72  E(vib)   ...       0.00
freq.    3189.11  E(vib)   ...       0.00
freq.    3218.10  E(vib)   ...       0.00

------------
INNER ENERGY
------------

The inner energy is: U= E(el) + E(ZPE) + E(vib) + E(rot) + E(trans)
    E(el)   - is the total energy from the electronic structure calculation
              = E(kin-el) + E(nuc-el) + E(el-el) + E(nuc-nuc)
    E(ZPE)  - the the zero temperature vibrational energy from the frequency calculation
    E(vib)  - the the finite temperature correction to E(ZPE) due to population
              of excited vibrational states
    E(rot)  - is the rotational thermal energy
    E(trans)- is the translational thermal energy

Summary of contributions to the inner energy U:
Electronic energy                ...    -78.62699891 Eh
Zero point energy                ...      0.05081481 Eh      31.89 kcal/mol
Thermal vibrational correction   ...      0.00021036 Eh       0.13 kcal/mol
Thermal rotational correction    ...      0.00141627 Eh       0.89 kcal/mol
Thermal translational correction ...      0.00141627 Eh       0.89 kcal/mol
-----------------------------------------------------------------------
Total thermal energy                    -78.57314120 Eh

Summary of corrections to the electronic energy:
(perhaps to be used in another calculation)
Total thermal correction                  0.00304291 Eh       1.91 kcal/mol
Non-thermal (ZPE) correction              0.05081481 Eh      31.89 kcal/mol
-----------------------------------------------------------------------
Total correction                          0.05385771 Eh      33.80 kcal/mol

--------
ENTHALPY
--------

The enthalpy is H = U + kB*T
                kB is Boltzmann's constant
Total free energy                 ...    -78.57314120 Eh
Thermal Enthalpy correction       ...      0.00094421 Eh       0.59 kcal/mol
-----------------------------------------------------------------------
Total Enthalpy                    ...    -78.57219699 Eh

Note: Rotational entropy computed according to Herzberg
Infrared and Raman Spectra, Chapter V,1, Van Nostrand Reinhold, 1945
Point Group:  Ci, Symmetry Number:   1
Rotational constants in cm-1:     4.916409     1.009240     0.837349

Vibrational entropy computed according to the QRRHO of S. Grimme
Chem.Eur.J. 2012 18 9955

-------
ENTROPY
-------

The entropy contributions are T*S = T*(S(el)+S(vib)+S(rot)+S(trans))
     S(el)   - electronic entropy
     S(vib)  - vibrational entropy
     S(rot)  - rotational entropy
     S(trans)- translational entropy
The entropies will be listed as mutliplied by the temperature to get
units of energy

Electronic entropy                ...      0.00000000 Eh      0.00 kcal/mol
Vibrational entropy               ...      0.00025548 Eh      0.16 kcal/mol
Rotational entropy                ...      0.00883843 Eh      5.55 kcal/mol
Translational entropy             ...      0.01707111 Eh     10.71 kcal/mol
-----------------------------------------------------------------------
Final entropy term                ...      0.02616502 Eh     16.42 kcal/mol

In case the symmetry of your molecule has not been determined correctly
or in case you have a reason to use a different symmetry number we print
out the resulting rotational entropy values for sn=1,12 :
 --------------------------------------------------------
|  sn= 1 | S(rot)=       0.00883843 Eh      5.55 kcal/mol|
|  sn= 2 | S(rot)=       0.00818397 Eh      5.14 kcal/mol|
|  sn= 3 | S(rot)=       0.00780114 Eh      4.90 kcal/mol|
|  sn= 4 | S(rot)=       0.00752952 Eh      4.72 kcal/mol|
|  sn= 5 | S(rot)=       0.00731883 Eh      4.59 kcal/mol|
|  sn= 6 | S(rot)=       0.00714668 Eh      4.48 kcal/mol|
|  sn= 7 | S(rot)=       0.00700114 Eh      4.39 kcal/mol|
|  sn= 8 | S(rot)=       0.00687506 Eh      4.31 kcal/mol|
|  sn= 9 | S(rot)=       0.00676385 Eh      4.24 kcal/mol|
|  sn=10 | S(rot)=       0.00666437 Eh      4.18 kcal/mol|
|  sn=11 | S(rot)=       0.00657438 Eh      4.13 kcal/mol|
|  sn=12 | S(rot)=       0.00649223 Eh      4.07 kcal/mol|
 --------------------------------------------------------

-------------------
GIBBS FREE ENERGY
-------------------

The Gibbs free energy is G = H - T*S

Total enthalpy                    ...    -78.57219699 Eh
Total entropy correction          ...     -0.02616502 Eh    -16.42 kcal/mol
-----------------------------------------------------------------------
Final Gibbs free energy         ...    -78.59836201 Eh

For completeness - the Gibbs free energy minus the electronic energy
G-E(el)                           ...      0.02863691 Eh     17.97 kcal/mol

                             ****ORCA TERMINATED NORMALLY****
TOTAL RUN TIME: 0 days 0 hours 2 minutes 34 seconds 600 msec
