                         Program Version 4.2.0 -  RELEASE  -
|  1> #
|  2> # 04_CCl2 tpssh/aug-cc-pvt(+d)z
|  3> #
|  4> ! tpssh d3bj aug-cc-pvt(+d)z def2/jk opt xyzfile numfreq
|  5>
|  6> *xyz 0 1
|  7> C           -0.000001096         -0.034087471          0.023432751
|  8> Cl          -0.000006529          0.957613518         -1.373095207
|  9> Cl           0.000007625          0.959794548          1.418391908
| 10> *
| 11>
| 12> %pal
| 13> nprocs 24
| 14> end
| 15>
| 16>
| 17>                          ****END OF INPUT****
 Total Charge           Charge          ....    0
 Multiplicity           Mult            ....    1
 Number of Electrons    NEL             ....   40
Dispersion correction           -0.002792567
FINAL SINGLE POINT ENERGY      -958.490985938613
Dispersion correction            ... done
Dispersion correction           -0.002788874
FINAL SINGLE POINT ENERGY      -958.491096731194
Dispersion correction            ... done
Dispersion correction           -0.002787582
FINAL SINGLE POINT ENERGY      -958.491108532468
Dispersion correction            ... done
Dispersion correction           -0.002787800
FINAL SINGLE POINT ENERGY      -958.491103995071
Dispersion correction            ... done
                    ***********************HURRAY********************

CARTESIAN COORDINATES (ANGSTROEM)
---------------------------------
  C     -0.000001   -0.041773    0.023433
  Cl    -0.000007    0.961446   -1.383691
  Cl     0.000008    0.963648    1.428988

 Multiplicity           Mult            ....    1
 Number of Electrons    NEL             ....   40
 Basis Dimension        Dim             ....  156

ORBITAL ENERGIES
----------------

  NO   OCC          E(Eh)            E(eV)
   0   2.0000    -101.451760     -2760.6427
   1   2.0000    -101.451758     -2760.6427
   2   2.0000     -10.272202      -279.5208
   3   2.0000      -9.431956      -256.6566
   4   2.0000      -9.431952      -256.6565
   5   2.0000      -7.179997      -195.3777
   6   2.0000      -7.179995      -195.3776
   7   2.0000      -7.174985      -195.2413
   8   2.0000      -7.174983      -195.2412
   9   2.0000      -7.171153      -195.1370
  10   2.0000      -7.171151      -195.1370
  11   2.0000      -0.913648       -24.8616
  12   2.0000      -0.837758       -22.7965
  13   2.0000      -0.595258       -16.1978
  14   2.0000      -0.457021       -12.4362
  15   2.0000      -0.406192       -11.0530
  16   2.0000      -0.404346       -11.0028
  17   2.0000      -0.345385        -9.3984
  18   2.0000      -0.320582        -8.7235
  19   2.0000      -0.257672        -7.0116
  20   0.0000      -0.146700        -3.9919
  21   0.0000      -0.030723        -0.8360
  22   0.0000       0.007676         0.2089
  23   0.0000       0.010728         0.2919
  24   0.0000       0.046608         1.2683

MULLIKEN ATOMIC CHARGES
-----------------------
   0 C :   -0.250069
   1 Cl:    0.125068
   2 Cl:    0.125001
Sum of atomic charges:   -0.0000000

LOEWDIN ATOMIC CHARGES
----------------------
   0 C :   -1.291492
   1 Cl:    0.645749
   2 Cl:    0.645743

  Mayer bond orders larger than 0.100000
B(  0-C ,  1-Cl) :   1.0827 B(  0-C ,  2-Cl) :   1.0827 B(  1-Cl,  2-Cl) :   0.1231

Dispersion correction           -0.002787902
FINAL SINGLE POINT ENERGY      -958.491103601249

DIPOLE MOMENT
-------------
                                X             Y             Z
Electronic contribution:      0.00000       0.79810      -0.00063
Nuclear contribution   :     -0.00000      -0.39053       0.00031
                        -----------------------------------------
Total Dipole Moment    :      0.00000       0.40756      -0.00032
                        -----------------------------------------
Magnitude (a.u.)       :      0.40756
Magnitude (Debye)      :      1.03594

VIBRATIONAL FREQUENCIES
-----------------------

Scaling factor for frequencies =  1.000000000 (already applied!)

   0:         0.00 cm**-1
   1:         0.00 cm**-1
   2:         0.00 cm**-1
   3:         0.00 cm**-1
   4:         0.00 cm**-1
   5:         0.00 cm**-1
   6:       327.38 cm**-1
   7:       706.58 cm**-1
   8:       724.02 cm**-1

IR SPECTRUM
-----------

 Mode    freq (cm**-1)   T**2         TX         TY         TZ
-------------------------------------------------------------------
   6:       327.38    0.516336  (  0.000001   0.718565  -0.000064)
   7:       706.58   25.019498  (  0.000008   5.001920  -0.017066)
   8:       724.02  353.940243  ( -0.000090  -0.015212 -18.813293)

--------------------------
THERMOCHEMISTRY AT 298.15K
--------------------------

Temperature         ... 298.15 K
Pressure            ... 1.00 atm
Total Mass          ... 82.92 AMU

Throughout the following assumptions are being made:
  (1) The electronic state is orbitally nondegenerate
  (2) There are no thermally accessible electronically excited states
  (3) Hindered rotations indicated by low frequency modes are not
      treated as such but are treated as vibrations and this may
      cause some error
  (4) All equations used are the standard statistical mechanics
      equations for an ideal gas
  (5) All vibrations are strictly harmonic

freq.     327.38  E(vib)   ...       0.24
freq.     706.58  E(vib)   ...       0.07
freq.     724.02  E(vib)   ...       0.06

------------
INNER ENERGY
------------

The inner energy is: U= E(el) + E(ZPE) + E(vib) + E(rot) + E(trans)
    E(el)   - is the total energy from the electronic structure calculation
              = E(kin-el) + E(nuc-el) + E(el-el) + E(nuc-nuc)
    E(ZPE)  - the the zero temperature vibrational energy from the frequency calculation
    E(vib)  - the the finite temperature correction to E(ZPE) due to population
              of excited vibrational states
    E(rot)  - is the rotational thermal energy
    E(trans)- is the translational thermal energy

Summary of contributions to the inner energy U:
Electronic energy                ...   -958.49110360 Eh
Zero point energy                ...      0.00400496 Eh       2.51 kcal/mol
Thermal vibrational correction   ...      0.00060048 Eh       0.38 kcal/mol
Thermal rotational correction    ...      0.00141627 Eh       0.89 kcal/mol
Thermal translational correction ...      0.00141627 Eh       0.89 kcal/mol
-----------------------------------------------------------------------
Total thermal energy                   -958.48366562 Eh

Summary of corrections to the electronic energy:
(perhaps to be used in another calculation)
Total thermal correction                  0.00343302 Eh       2.15 kcal/mol
Non-thermal (ZPE) correction              0.00400496 Eh       2.51 kcal/mol
-----------------------------------------------------------------------
Total correction                          0.00743798 Eh       4.67 kcal/mol

--------
ENTHALPY
--------

The enthalpy is H = U + kB*T
                kB is Boltzmann's constant
Total free energy                 ...   -958.48366562 Eh
Thermal Enthalpy correction       ...      0.00094421 Eh       0.59 kcal/mol
-----------------------------------------------------------------------
Total Enthalpy                    ...   -958.48272141 Eh

Note: Rotational entropy computed according to Herzberg
Infrared and Raman Spectra, Chapter V,1, Van Nostrand Reinhold, 1945
Point Group:  Cs, Symmetry Number:   1
Rotational constants in cm-1:     1.627173     0.120208     0.111938

Vibrational entropy computed according to the QRRHO of S. Grimme
Chem.Eur.J. 2012 18 9955

-------
ENTROPY
-------

The entropy contributions are T*S = T*(S(el)+S(vib)+S(rot)+S(trans))
     S(el)   - electronic entropy
     S(vib)  - vibrational entropy
     S(rot)  - rotational entropy
     S(trans)- translational entropy
The entropies will be listed as mutliplied by the temperature to get
units of energy

Electronic entropy                ...      0.00000000 Eh      0.00 kcal/mol
Vibrational entropy               ...      0.00088103 Eh      0.55 kcal/mol
Rotational entropy                ...      0.01131490 Eh      7.10 kcal/mol
Translational entropy             ...      0.01860593 Eh     11.68 kcal/mol
-----------------------------------------------------------------------
Final entropy term                ...      0.03080186 Eh     19.33 kcal/mol

In case the symmetry of your molecule has not been determined correctly
or in case you have a reason to use a different symmetry number we print
out the resulting rotational entropy values for sn=1,12 :
 --------------------------------------------------------
|  sn= 1 | S(rot)=       0.01131490 Eh      7.10 kcal/mol|
|  sn= 2 | S(rot)=       0.01066044 Eh      6.69 kcal/mol|
|  sn= 3 | S(rot)=       0.01027761 Eh      6.45 kcal/mol|
|  sn= 4 | S(rot)=       0.01000599 Eh      6.28 kcal/mol|
|  sn= 5 | S(rot)=       0.00979530 Eh      6.15 kcal/mol|
|  sn= 6 | S(rot)=       0.00962316 Eh      6.04 kcal/mol|
|  sn= 7 | S(rot)=       0.00947761 Eh      5.95 kcal/mol|
|  sn= 8 | S(rot)=       0.00935153 Eh      5.87 kcal/mol|
|  sn= 9 | S(rot)=       0.00924032 Eh      5.80 kcal/mol|
|  sn=10 | S(rot)=       0.00914084 Eh      5.74 kcal/mol|
|  sn=11 | S(rot)=       0.00905085 Eh      5.68 kcal/mol|
|  sn=12 | S(rot)=       0.00896870 Eh      5.63 kcal/mol|
 --------------------------------------------------------

-------------------
GIBBS FREE ENERGY
-------------------

The Gibbs free energy is G = H - T*S

Total enthalpy                    ...   -958.48272141 Eh
Total entropy correction          ...     -0.03080186 Eh    -19.33 kcal/mol
-----------------------------------------------------------------------
Final Gibbs free energy         ...   -958.51352327 Eh

For completeness - the Gibbs free energy minus the electronic energy
G-E(el)                           ...     -0.02241967 Eh    -14.07 kcal/mol

                             ****ORCA TERMINATED NORMALLY****
TOTAL RUN TIME: 0 days 0 hours 4 minutes 2 seconds 791 msec
