                         Program Version 4.2.0 -  RELEASE  -
|  1> #
|  2> # 05_CF2 tpssh/aug-cc-pvt(+d)z
|  3> #
|  4> ! tpssh d3bj aug-cc-pvt(+d)z def2/jk opt xyzfile numfreq
|  5>
|  6> *xyz 0 1
|  7> C           -0.000000060          0.136363107         -0.000000094
|  8> F            0.000000126          0.931818632         -1.030127802
|  9> F           -0.000000065          0.931818256          1.030127896
| 10> *
| 11>
| 12> %pal
| 13> nprocs 24
| 14> end
| 15>
| 16>
| 17>                          ****END OF INPUT****
 Total Charge           Charge          ....    0
 Multiplicity           Mult            ....    1
 Number of Electrons    NEL             ....   24
Dispersion correction           -0.000738112
FINAL SINGLE POINT ENERGY      -237.792253609845
Dispersion correction            ... done
Dispersion correction           -0.000738060
FINAL SINGLE POINT ENERGY      -237.792347183279
Dispersion correction            ... done
Dispersion correction           -0.000738035
FINAL SINGLE POINT ENERGY      -237.792360375396
Dispersion correction            ... done
                    ***********************HURRAY********************

CARTESIAN COORDINATES (ANGSTROEM)
---------------------------------
  C     -0.000000    0.129899   -0.000000
  F      0.000000    0.935051   -1.033012
  F     -0.000000    0.935050    1.033012

 Multiplicity           Mult            ....    1
 Number of Electrons    NEL             ....   24
 Basis Dimension        Dim             ....  138

ORBITAL ENERGIES
----------------

  NO   OCC          E(Eh)            E(eV)
   0   2.0000     -24.685477      -671.7260
   1   2.0000     -24.685473      -671.7259
   2   2.0000     -10.320693      -280.8403
   3   2.0000      -1.316003       -35.8103
   4   2.0000      -1.242954       -33.8225
   5   2.0000      -0.689977       -18.7752
   6   2.0000      -0.583445       -15.8763
   7   2.0000      -0.537713       -14.6319
   8   2.0000      -0.529088       -14.3972
   9   2.0000      -0.462757       -12.5923
  10   2.0000      -0.433896       -11.8069
  11   2.0000      -0.300213        -8.1692
  12   0.0000      -0.112718        -3.0672
  13   0.0000       0.018921         0.5149
  14   0.0000       0.033347         0.9074
  15   0.0000       0.045771         1.2455
  16   0.0000       0.046984         1.2785

MULLIKEN ATOMIC CHARGES
-----------------------
   0 C :    0.269113
   1 F :   -0.134557
   2 F :   -0.134557
Sum of atomic charges:   -0.0000000

LOEWDIN ATOMIC CHARGES
----------------------
   0 C :   -0.680872
   1 F :    0.340436
   2 F :    0.340436

  Mayer bond orders larger than 0.100000
B(  0-C ,  1-F ) :   1.0862 B(  0-C ,  2-F ) :   1.0862

Dispersion correction           -0.000738031
FINAL SINGLE POINT ENERGY      -237.792360969659

DIPOLE MOMENT
-------------
                                X             Y             Z
Electronic contribution:      0.00000       0.59449       0.00000
Nuclear contribution   :     -0.00000      -0.35836      -0.00000
                        -----------------------------------------
Total Dipole Moment    :      0.00000       0.23613       0.00000
                        -----------------------------------------
Magnitude (a.u.)       :      0.23613
Magnitude (Debye)      :      0.60019

VIBRATIONAL FREQUENCIES
-----------------------

Scaling factor for frequencies =  1.000000000 (already applied!)

   0:         0.00 cm**-1
   1:         0.00 cm**-1
   2:         0.00 cm**-1
   3:         0.00 cm**-1
   4:         0.00 cm**-1
   5:         0.00 cm**-1
   6:       663.00 cm**-1
   7:      1082.21 cm**-1
   8:      1206.54 cm**-1

IR SPECTRUM
-----------

 Mode    freq (cm**-1)   T**2         TX         TY         TZ
-------------------------------------------------------------------
   6:       663.00    2.488304  ( -0.000002  -1.577436  -0.000005)
   7:      1082.21  375.300465  (  0.000000  -0.000011  19.372673)
   8:      1206.54  112.098373  ( -0.000001 -10.587652  -0.000014)

--------------------------
THERMOCHEMISTRY AT 298.15K
--------------------------

Temperature         ... 298.15 K
Pressure            ... 1.00 atm
Total Mass          ... 50.01 AMU

Throughout the following assumptions are being made:
  (1) The electronic state is orbitally nondegenerate
  (2) There are no thermally accessible electronically excited states
  (3) Hindered rotations indicated by low frequency modes are not
      treated as such but are treated as vibrations and this may
      cause some error
  (4) All equations used are the standard statistical mechanics
      equations for an ideal gas
  (5) All vibrations are strictly harmonic

freq.     663.00  E(vib)   ...       0.08
freq.    1082.21  E(vib)   ...       0.02
freq.    1206.54  E(vib)   ...       0.01

------------
INNER ENERGY
------------

The inner energy is: U= E(el) + E(ZPE) + E(vib) + E(rot) + E(trans)
    E(el)   - is the total energy from the electronic structure calculation
              = E(kin-el) + E(nuc-el) + E(el-el) + E(nuc-nuc)
    E(ZPE)  - the the zero temperature vibrational energy from the frequency calculation
    E(vib)  - the the finite temperature correction to E(ZPE) due to population
              of excited vibrational states
    E(rot)  - is the rotational thermal energy
    E(trans)- is the translational thermal energy

Summary of contributions to the inner energy U:
Electronic energy                ...   -237.79236097 Eh
Zero point energy                ...      0.00672458 Eh       4.22 kcal/mol
Thermal vibrational correction   ...      0.00017153 Eh       0.11 kcal/mol
Thermal rotational correction    ...      0.00141627 Eh       0.89 kcal/mol
Thermal translational correction ...      0.00141627 Eh       0.89 kcal/mol
-----------------------------------------------------------------------
Total thermal energy                   -237.78263232 Eh

Summary of corrections to the electronic energy:
(perhaps to be used in another calculation)
Total thermal correction                  0.00300407 Eh       1.89 kcal/mol
Non-thermal (ZPE) correction              0.00672458 Eh       4.22 kcal/mol
-----------------------------------------------------------------------
Total correction                          0.00972865 Eh       6.10 kcal/mol

--------
ENTHALPY
--------

The enthalpy is H = U + kB*T
                kB is Boltzmann's constant
Total free energy                 ...   -237.78263232 Eh
Thermal Enthalpy correction       ...      0.00094421 Eh       0.59 kcal/mol
-----------------------------------------------------------------------
Total Enthalpy                    ...   -237.78168811 Eh

Note: Rotational entropy computed according to Herzberg
Infrared and Raman Spectra, Chapter V,1, Van Nostrand Reinhold, 1945
Point Group:  C2v, Symmetry Number:   2
Rotational constants in cm-1:     2.849415     0.415766     0.362825

Vibrational entropy computed according to the QRRHO of S. Grimme
Chem.Eur.J. 2012 18 9955

-------
ENTROPY
-------

The entropy contributions are T*S = T*(S(el)+S(vib)+S(rot)+S(trans))
     S(el)   - electronic entropy
     S(vib)  - vibrational entropy
     S(rot)  - rotational entropy
     S(trans)- translational entropy
The entropies will be listed as mutliplied by the temperature to get
units of energy

Electronic entropy                ...      0.00000000 Eh      0.00 kcal/mol
Vibrational entropy               ...      0.00021893 Eh      0.14 kcal/mol
Rotational entropy                ...      0.00925497 Eh      5.81 kcal/mol
Translational entropy             ...      0.01788976 Eh     11.23 kcal/mol
-----------------------------------------------------------------------
Final entropy term                ...      0.02736365 Eh     17.17 kcal/mol

In case the symmetry of your molecule has not been determined correctly
or in case you have a reason to use a different symmetry number we print
out the resulting rotational entropy values for sn=1,12 :
 --------------------------------------------------------
|  sn= 1 | S(rot)=       0.00990942 Eh      6.22 kcal/mol|
|  sn= 2 | S(rot)=       0.00925497 Eh      5.81 kcal/mol|
|  sn= 3 | S(rot)=       0.00887213 Eh      5.57 kcal/mol|
|  sn= 4 | S(rot)=       0.00860051 Eh      5.40 kcal/mol|
|  sn= 5 | S(rot)=       0.00838982 Eh      5.26 kcal/mol|
|  sn= 6 | S(rot)=       0.00821768 Eh      5.16 kcal/mol|
|  sn= 7 | S(rot)=       0.00807213 Eh      5.07 kcal/mol|
|  sn= 8 | S(rot)=       0.00794605 Eh      4.99 kcal/mol|
|  sn= 9 | S(rot)=       0.00783484 Eh      4.92 kcal/mol|
|  sn=10 | S(rot)=       0.00773537 Eh      4.85 kcal/mol|
|  sn=11 | S(rot)=       0.00764537 Eh      4.80 kcal/mol|
|  sn=12 | S(rot)=       0.00756322 Eh      4.75 kcal/mol|
 --------------------------------------------------------

-------------------
GIBBS FREE ENERGY
-------------------

The Gibbs free energy is G = H - T*S

Total enthalpy                    ...   -237.78168811 Eh
Total entropy correction          ...     -0.02736365 Eh    -17.17 kcal/mol
-----------------------------------------------------------------------
Final Gibbs free energy         ...   -237.80905176 Eh

For completeness - the Gibbs free energy minus the electronic energy
G-E(el)                           ...     -0.01669079 Eh    -10.47 kcal/mol

                             ****ORCA TERMINATED NORMALLY****
TOTAL RUN TIME: 0 days 0 hours 1 minutes 25 seconds 727 msec
