                         Program Version 4.2.0 -  RELEASE  -
|  1> #
|  2> # 06_CH4 tpssh/aug-cc-pvt(+d)z
|  3> #
|  4> ! tpssh d3bj aug-cc-pvt(+d)z def2/jk opt xyzfile numfreq
|  5>
|  6> *xyz 0 1
|  7> C           -0.000019863          0.000010602          0.000009334
|  8> H            0.553735898          0.798934116          0.495881879
|  9> H            0.682720826         -0.812639290         -0.253504979
| 10> H           -0.777369102         -0.373181326          0.668786102
| 11> H           -0.459167758          0.386975897         -0.911172431
| 12> *
| 13>
| 14> %pal
| 15> nprocs 24
| 16> end
| 17>
| 18>
| 19>                          ****END OF INPUT****
 Total Charge           Charge          ....    0
 Multiplicity           Mult            ....    1
 Number of Electrons    NEL             ....   10
Dispersion correction           -0.001228711
FINAL SINGLE POINT ENERGY       -40.539000815894
Dispersion correction            ... done
Dispersion correction           -0.001228741
FINAL SINGLE POINT ENERGY       -40.539005210635
Dispersion correction            ... done
                    ***********************HURRAY********************

CARTESIAN COORDINATES (ANGSTROEM)
---------------------------------
  C      0.000008   -0.000033    0.000045
  H      0.553036    0.798168    0.495233
  H      0.681817   -0.811656   -0.253433
  H     -0.776580   -0.372735    0.667994
  H     -0.458381    0.386356   -0.909839

 Multiplicity           Mult            ....    1
 Number of Electrons    NEL             ....   10
 Basis Dimension        Dim             ....  138

ORBITAL ENERGIES
----------------

  NO   OCC          E(Eh)            E(eV)
   0   2.0000     -10.096807      -274.7481
   1   2.0000      -0.676944       -18.4206
   2   2.0000      -0.376477       -10.2445
   3   2.0000      -0.376433       -10.2433
   4   2.0000      -0.376374       -10.2417
   5   0.0000      -0.004014        -0.1092
   6   0.0000       0.030173         0.8210
   7   0.0000       0.030195         0.8217
   8   0.0000       0.030233         0.8227
   9   0.0000       0.086294         2.3482

MULLIKEN ATOMIC CHARGES
-----------------------
   0 C :   -0.593135
   1 H :    0.146449
   2 H :    0.151785
   3 H :    0.159818
   4 H :    0.135083
Sum of atomic charges:   -0.0000000

LOEWDIN ATOMIC CHARGES
----------------------
   0 C :    0.859731
   1 H :   -0.214691
   2 H :   -0.215264
   3 H :   -0.214984
   4 H :   -0.214792

  Mayer bond orders larger than 0.100000
B(  0-C ,  1-H ) :   0.9755 B(  0-C ,  2-H ) :   0.9578 B(  0-C ,  3-H ) :   0.9564
B(  0-C ,  4-H ) :   0.9854

Dispersion correction           -0.001228742
FINAL SINGLE POINT ENERGY       -40.539005203496

DIPOLE MOMENT
-------------
                                X             Y             Z
Electronic contribution:     -0.00098       0.00132      -0.00260
Nuclear contribution   :     -0.00010       0.00019      -0.00016
                        -----------------------------------------
Total Dipole Moment    :     -0.00108       0.00151      -0.00276
                        -----------------------------------------
Magnitude (a.u.)       :      0.00332
Magnitude (Debye)      :      0.00845

VIBRATIONAL FREQUENCIES
-----------------------

Scaling factor for frequencies =  1.000000000 (already applied!)

   0:         0.00 cm**-1
   1:         0.00 cm**-1
   2:         0.00 cm**-1
   3:         0.00 cm**-1
   4:         0.00 cm**-1
   5:         0.00 cm**-1
   6:      1349.50 cm**-1
   7:      1350.08 cm**-1
   8:      1350.45 cm**-1
   9:      1569.59 cm**-1
  10:      1571.44 cm**-1
  11:      3024.19 cm**-1
  12:      3125.89 cm**-1
  13:      3126.99 cm**-1
  14:      3130.35 cm**-1

IR SPECTRUM
-----------

 Mode    freq (cm**-1)   T**2         TX         TY         TZ
-------------------------------------------------------------------
   6:      1349.50    9.534069  ( -2.878481  -0.525934  -0.985804)
   7:      1350.08    9.178115  (  0.709805   0.261595  -2.933575)
   8:      1350.45    9.404535  (  0.570334  -3.007414  -0.186328)
   9:      1569.59    0.041486  (  0.074567   0.109994  -0.154359)
  10:      1571.44    0.069127  (  0.254988  -0.049444   0.040779)
  11:      3024.19    0.043530  ( -0.062845   0.021198   0.197816)
  12:      3125.89   21.472313  ( -1.507848  -4.109437  -1.520274)
  13:      3126.99   24.098314  (  3.928130  -0.170185  -2.939243)
  14:      3130.35   23.399978  ( -2.544590   2.103888  -3.535349)

--------------------------
THERMOCHEMISTRY AT 298.15K
--------------------------

Temperature         ... 298.15 K
Pressure            ... 1.00 atm
Total Mass          ... 16.04 AMU

Throughout the following assumptions are being made:
  (1) The electronic state is orbitally nondegenerate
  (2) There are no thermally accessible electronically excited states
  (3) Hindered rotations indicated by low frequency modes are not
      treated as such but are treated as vibrations and this may
      cause some error
  (4) All equations used are the standard statistical mechanics
      equations for an ideal gas
  (5) All vibrations are strictly harmonic

freq.    1349.50  E(vib)   ...       0.01
freq.    1350.08  E(vib)   ...       0.01
freq.    1350.45  E(vib)   ...       0.01
freq.    1569.59  E(vib)   ...       0.00
freq.    1571.44  E(vib)   ...       0.00
freq.    3024.19  E(vib)   ...       0.00
freq.    3125.89  E(vib)   ...       0.00
freq.    3126.99  E(vib)   ...       0.00
freq.    3130.35  E(vib)   ...       0.00

------------
INNER ENERGY
------------

The inner energy is: U= E(el) + E(ZPE) + E(vib) + E(rot) + E(trans)
    E(el)   - is the total energy from the electronic structure calculation
              = E(kin-el) + E(nuc-el) + E(el-el) + E(nuc-nuc)
    E(ZPE)  - the the zero temperature vibrational energy from the frequency calculation
    E(vib)  - the the finite temperature correction to E(ZPE) due to population
              of excited vibrational states
    E(rot)  - is the rotational thermal energy
    E(trans)- is the translational thermal energy

Summary of contributions to the inner energy U:
Electronic energy                ...    -40.53900520 Eh
Zero point energy                ...      0.04464861 Eh      28.02 kcal/mol
Thermal vibrational correction   ...      0.00003472 Eh       0.02 kcal/mol
Thermal rotational correction    ...      0.00141627 Eh       0.89 kcal/mol
Thermal translational correction ...      0.00141627 Eh       0.89 kcal/mol
-----------------------------------------------------------------------
Total thermal energy                    -40.49148932 Eh

Summary of corrections to the electronic energy:
(perhaps to be used in another calculation)
Total thermal correction                  0.00286727 Eh       1.80 kcal/mol
Non-thermal (ZPE) correction              0.04464861 Eh      28.02 kcal/mol
-----------------------------------------------------------------------
Total correction                          0.04751588 Eh      29.82 kcal/mol

--------
ENTHALPY
--------

The enthalpy is H = U + kB*T
                kB is Boltzmann's constant
Total free energy                 ...    -40.49148932 Eh
Thermal Enthalpy correction       ...      0.00094421 Eh       0.59 kcal/mol
-----------------------------------------------------------------------
Total Enthalpy                    ...    -40.49054511 Eh

Note: Only C1 symmetry has been detected, increase convergence thresholds
      if your molecule has a higher symmetry. Symmetry factor of 1.0 is
      used for the rotational entropy correction.

Note: Rotational entropy computed according to Herzberg
Infrared and Raman Spectra, Chapter V,1, Van Nostrand Reinhold, 1945
Point Group:  C1, Symmetry Number:   1
Rotational constants in cm-1:     5.280483     5.280400     5.277829

Vibrational entropy computed according to the QRRHO of S. Grimme
Chem.Eur.J. 2012 18 9955

-------
ENTROPY
-------

The entropy contributions are T*S = T*(S(el)+S(vib)+S(rot)+S(trans))
     S(el)   - electronic entropy
     S(vib)  - vibrational entropy
     S(rot)  - rotational entropy
     S(trans)- translational entropy
The entropies will be listed as mutliplied by the temperature to get
units of energy

Electronic entropy                ...      0.00000000 Eh      0.00 kcal/mol
Vibrational entropy               ...      0.00003990 Eh      0.03 kcal/mol
Rotational entropy                ...      0.00715435 Eh      4.49 kcal/mol
Translational entropy             ...      0.01627961 Eh     10.22 kcal/mol
-----------------------------------------------------------------------
Final entropy term                ...      0.02347386 Eh     14.73 kcal/mol

In case the symmetry of your molecule has not been determined correctly
or in case you have a reason to use a different symmetry number we print
out the resulting rotational entropy values for sn=1,12 :
 --------------------------------------------------------
|  sn= 1 | S(rot)=       0.00715435 Eh      4.49 kcal/mol|
|  sn= 2 | S(rot)=       0.00649990 Eh      4.08 kcal/mol|
|  sn= 3 | S(rot)=       0.00611707 Eh      3.84 kcal/mol|
|  sn= 4 | S(rot)=       0.00584544 Eh      3.67 kcal/mol|
|  sn= 5 | S(rot)=       0.00563475 Eh      3.54 kcal/mol|
|  sn= 6 | S(rot)=       0.00546261 Eh      3.43 kcal/mol|
|  sn= 7 | S(rot)=       0.00531706 Eh      3.34 kcal/mol|
|  sn= 8 | S(rot)=       0.00519099 Eh      3.26 kcal/mol|
|  sn= 9 | S(rot)=       0.00507978 Eh      3.19 kcal/mol|
|  sn=10 | S(rot)=       0.00498030 Eh      3.13 kcal/mol|
|  sn=11 | S(rot)=       0.00489031 Eh      3.07 kcal/mol|
|  sn=12 | S(rot)=       0.00480815 Eh      3.02 kcal/mol|
 --------------------------------------------------------

-------------------
GIBBS FREE ENERGY
-------------------

The Gibbs free energy is G = H - T*S

Total enthalpy                    ...    -40.49054511 Eh
Total entropy correction          ...     -0.02347386 Eh    -14.73 kcal/mol
-----------------------------------------------------------------------
Final Gibbs free energy         ...    -40.51401898 Eh

For completeness - the Gibbs free energy minus the electronic energy
G-E(el)                           ...      0.02498622 Eh     15.68 kcal/mol

                             ****ORCA TERMINATED NORMALLY****
TOTAL RUN TIME: 0 days 0 hours 0 minutes 56 seconds 333 msec
