                         Program Version 4.2.0 -  RELEASE  -
|  1> #
|  2> # 07_Cl2 tpssh/aug-cc-pvt(+d)z
|  3> #
|  4> ! tpssh d3bj aug-cc-pvt(+d)z def2/jk opt xyzfile numfreq
|  5>
|  6> *xyz 0 1
|  7> Cl          -0.996696800          0.000000000         -0.000000015
|  8> Cl           0.996696800         -0.000000000          0.000000015
|  9> *
| 10>
| 11> %pal
| 12> nprocs 24
| 13> end
| 14>
| 15>
| 16>                          ****END OF INPUT****
 Total Charge           Charge          ....    0
 Multiplicity           Mult            ....    1
 Number of Electrons    NEL             ....   34
Dispersion correction           -0.001241233
FINAL SINGLE POINT ENERGY      -920.441068325328
Dispersion correction            ... done
Dispersion correction           -0.001241125
FINAL SINGLE POINT ENERGY      -920.441075540296
Dispersion correction            ... done
Dispersion correction           -0.001241053
FINAL SINGLE POINT ENERGY      -920.441075941076
Dispersion correction            ... done
                    ***********************HURRAY********************

CARTESIAN COORDINATES (ANGSTROEM)
---------------------------------
  Cl    -0.999486    0.000000   -0.000000
  Cl     0.999486    0.000000    0.000000

 Multiplicity           Mult            ....    1
 Number of Electrons    NEL             ....   34
 Basis Dimension        Dim             ....  110

ORBITAL ENERGIES
----------------

  NO   OCC          E(Eh)            E(eV)
   0   2.0000    -101.461346     -2760.9036
   1   2.0000    -101.461341     -2760.9035
   2   2.0000      -9.438147      -256.8250
   3   2.0000      -9.438113      -256.8241
   4   2.0000      -7.191777      -195.6982
   5   2.0000      -7.191636      -195.6944
   6   2.0000      -7.176811      -195.2910
   7   2.0000      -7.176811      -195.2910
   8   2.0000      -7.176803      -195.2907
   9   2.0000      -7.176803      -195.2907
  10   2.0000      -0.911272       -24.7970
  11   2.0000      -0.750798       -20.4303
  12   2.0000      -0.462011       -12.5720
  13   2.0000      -0.395060       -10.7501
  14   2.0000      -0.395060       -10.7501
  15   2.0000      -0.294415        -8.0114
  16   2.0000      -0.294415        -8.0114
  17   0.0000      -0.139354        -3.7920
  18   0.0000       0.035161         0.9568
  19   0.0000       0.042134         1.1465
  20   0.0000       0.058175         1.5830
  21   0.0000       0.058175         1.5830

MULLIKEN ATOMIC CHARGES
-----------------------
   0 Cl:    0.000000
   1 Cl:   -0.000000
Sum of atomic charges:   -0.0000000

LOEWDIN ATOMIC CHARGES
----------------------
   0 Cl:   -0.000000
   1 Cl:    0.000000

  Mayer bond orders larger than 0.100000
B(  0-Cl,  1-Cl) :   0.9804

Dispersion correction           -0.001241052
FINAL SINGLE POINT ENERGY      -920.441075915334

DIPOLE MOMENT
-------------
                                X             Y             Z
Electronic contribution:      0.00000      -0.00000       0.00000
Nuclear contribution   :      0.00000       0.00000       0.00000
                        -----------------------------------------
Total Dipole Moment    :      0.00000      -0.00000       0.00000
                        -----------------------------------------
Magnitude (a.u.)       :      0.00000
Magnitude (Debye)      :      0.00000

VIBRATIONAL FREQUENCIES
-----------------------

Scaling factor for frequencies =  1.000000000 (already applied!)

   0:         0.00 cm**-1
   1:         0.00 cm**-1
   2:         0.00 cm**-1
   3:         0.00 cm**-1
   4:         0.00 cm**-1
   5:       548.16 cm**-1

IR SPECTRUM
-----------

 Mode    freq (cm**-1)   T**2         TX         TY         TZ
-------------------------------------------------------------------
   5:       548.16    0.000000  ( -0.000001   0.000000   0.000000)

--------------------------
THERMOCHEMISTRY AT 298.15K
--------------------------

Temperature         ... 298.15 K
Pressure            ... 1.00 atm
Total Mass          ... 70.91 AMU
The molecule is recognized as being linear

Throughout the following assumptions are being made:
  (1) The electronic state is orbitally nondegenerate
  (2) There are no thermally accessible electronically excited states
  (3) Hindered rotations indicated by low frequency modes are not
      treated as such but are treated as vibrations and this may
      cause some error
  (4) All equations used are the standard statistical mechanics
      equations for an ideal gas
  (5) All vibrations are strictly harmonic

freq.     548.16  E(vib)   ...       0.12

------------
INNER ENERGY
------------

The inner energy is: U= E(el) + E(ZPE) + E(vib) + E(rot) + E(trans)
    E(el)   - is the total energy from the electronic structure calculation
              = E(kin-el) + E(nuc-el) + E(el-el) + E(nuc-nuc)
    E(ZPE)  - the the zero temperature vibrational energy from the frequency calculation
    E(vib)  - the the finite temperature correction to E(ZPE) due to population
              of excited vibrational states
    E(rot)  - is the rotational thermal energy
    E(trans)- is the translational thermal energy

Summary of contributions to the inner energy U:
Electronic energy                ...   -920.44107592 Eh
Zero point energy                ...      0.00124881 Eh       0.78 kcal/mol
Thermal vibrational correction   ...      0.00019086 Eh       0.12 kcal/mol
Thermal rotational correction    ...      0.00094418 Eh       0.59 kcal/mol
Thermal translational correction ...      0.00141627 Eh       0.89 kcal/mol
-----------------------------------------------------------------------
Total thermal energy                   -920.43727580 Eh

Summary of corrections to the electronic energy:
(perhaps to be used in another calculation)
Total thermal correction                  0.00255131 Eh       1.60 kcal/mol
Non-thermal (ZPE) correction              0.00124881 Eh       0.78 kcal/mol
-----------------------------------------------------------------------
Total correction                          0.00380012 Eh       2.38 kcal/mol

--------
ENTHALPY
--------

The enthalpy is H = U + kB*T
                kB is Boltzmann's constant
Total free energy                 ...   -920.43727580 Eh
Thermal Enthalpy correction       ...      0.00094421 Eh       0.59 kcal/mol
-----------------------------------------------------------------------
Total Enthalpy                    ...   -920.43633159 Eh

Note: Rotational entropy computed according to Herzberg
Infrared and Raman Spectra, Chapter V,1, Van Nostrand Reinhold, 1945
Point Group:  Dinfh, Symmetry Number:   2
Rotational constants in cm-1:     0.000000     0.237991     0.237991

Vibrational entropy computed according to the QRRHO of S. Grimme
Chem.Eur.J. 2012 18 9955

-------
ENTROPY
-------

The entropy contributions are T*S = T*(S(el)+S(vib)+S(rot)+S(trans))
     S(el)   - electronic entropy
     S(vib)  - vibrational entropy
     S(rot)  - rotational entropy
     S(trans)- translational entropy
The entropies will be listed as mutliplied by the temperature to get
units of energy

Electronic entropy                ...      0.00000000 Eh      0.00 kcal/mol
Vibrational entropy               ...      0.00026070 Eh      0.16 kcal/mol
Rotational entropy                ...      0.00668120 Eh      4.19 kcal/mol
Translational entropy             ...      0.01838431 Eh     11.54 kcal/mol
-----------------------------------------------------------------------
Final entropy term                ...      0.02532621 Eh     15.89 kcal/mol

In case the symmetry of your molecule has not been determined correctly
or in case you have a reason to use a different symmetry number we print
out the resulting rotational entropy values for sn=1,12 :
 --------------------------------------------------------
|  sn= 1 | S(rot)=             -nan Eh      -nan kcal/mol|
|  sn= 2 | S(rot)=             -nan Eh      -nan kcal/mol|
|  sn= 3 | S(rot)=             -nan Eh      -nan kcal/mol|
|  sn= 4 | S(rot)=             -nan Eh      -nan kcal/mol|
|  sn= 5 | S(rot)=             -nan Eh      -nan kcal/mol|
|  sn= 6 | S(rot)=             -nan Eh      -nan kcal/mol|
|  sn= 7 | S(rot)=             -nan Eh      -nan kcal/mol|
|  sn= 8 | S(rot)=             -nan Eh      -nan kcal/mol|
|  sn= 9 | S(rot)=             -nan Eh      -nan kcal/mol|
|  sn=10 | S(rot)=             -nan Eh      -nan kcal/mol|
|  sn=11 | S(rot)=             -nan Eh      -nan kcal/mol|
|  sn=12 | S(rot)=             -nan Eh      -nan kcal/mol|
 --------------------------------------------------------

-------------------
GIBBS FREE ENERGY
-------------------

The Gibbs free energy is G = H - T*S

Total enthalpy                    ...   -920.43633159 Eh
Total entropy correction          ...     -0.02532621 Eh    -15.89 kcal/mol
-----------------------------------------------------------------------
Final Gibbs free energy         ...   -920.46165779 Eh

For completeness - the Gibbs free energy minus the electronic energy
G-E(el)                           ...     -0.02058188 Eh    -12.92 kcal/mol

                             ****ORCA TERMINATED NORMALLY****
TOTAL RUN TIME: 0 days 0 hours 1 minutes 20 seconds 322 msec
