                         Program Version 4.2.0 -  RELEASE  -
|  1> #
|  2> # 08_ClCN tpssh/aug-cc-pvt(+d)z
|  3> #
|  4> ! tpssh d3bj aug-cc-pvt(+d)z def2/jk opt xyzfile numfreq
|  5>
|  6> *xyz 0 1
|  7> Cl          0.000000000          0.000000000          1.411403479
|  8> C           0.000000000          0.000000000         -0.154728403
|  9> N           0.000000000          0.000000000         -1.256675070
| 10> *
| 11>
| 12> %pal
| 13> nprocs 24
| 14> end
| 15>
| 16>
| 17>                          ****END OF INPUT****
 Total Charge           Charge          ....    0
 Multiplicity           Mult            ....    1
 Number of Electrons    NEL             ....   30
Dispersion correction           -0.002030235
FINAL SINGLE POINT ENERGY      -553.081459231838
Dispersion correction            ... done
Dispersion correction           -0.002017124
FINAL SINGLE POINT ENERGY      -553.091372811281
Dispersion correction            ... done
Dispersion correction           -0.002013049
FINAL SINGLE POINT ENERGY      -553.091851214881
Dispersion correction            ... done
FINAL SINGLE POINT ENERGY      -553.091899828647
Dispersion correction            ... done
Dispersion correction           -0.002011156
FINAL SINGLE POINT ENERGY      -553.091900940292
Dispersion correction            ... done
Dispersion correction           -0.002011174
FINAL SINGLE POINT ENERGY      -553.091900732236
Dispersion correction            ... done
                    ***********************HURRAY********************

CARTESIAN COORDINATES (ANGSTROEM)
---------------------------------
  Cl    -0.000000   -0.000000    1.472129
  C      0.000000    0.000000   -0.156845
  N     -0.000000   -0.000000   -1.315284

 Multiplicity           Mult            ....    1
 Number of Electrons    NEL             ....   30
 Basis Dimension        Dim             ....  147

ORBITAL ENERGIES
----------------

  NO   OCC          E(Eh)            E(eV)
   0   2.0000    -101.493950     -2761.7908
   1   2.0000     -14.280283      -388.5863
   2   2.0000     -10.215523      -277.9785
   3   2.0000      -9.472929      -257.7715
   4   2.0000      -7.223690      -196.5666
   5   2.0000      -7.212764      -196.2693
   6   2.0000      -7.212764      -196.2693
   7   2.0000      -0.944500       -25.7012
   8   2.0000      -0.885552       -24.0971
   9   2.0000      -0.567421       -15.4403
  10   2.0000      -0.429359       -11.6835
  11   2.0000      -0.429359       -11.6835
  12   2.0000      -0.376217       -10.2374
  13   2.0000      -0.325276        -8.8512
  14   2.0000      -0.325276        -8.8512
  15   0.0000      -0.041556        -1.1308
  16   0.0000      -0.015081        -0.4104
  17   0.0000      -0.015081        -0.4104
  18   0.0000       0.007416         0.2018
  19   0.0000       0.034896         0.9496

MULLIKEN ATOMIC CHARGES
-----------------------
   0 Cl:    0.105453
   1 C :    0.108922
   2 N :   -0.214374
Sum of atomic charges:   -0.0000000

LOEWDIN ATOMIC CHARGES
----------------------
   0 Cl:    0.958848
   1 C :   -1.060347
   2 N :    0.101499

  Mayer bond orders larger than 0.100000
B(  0-Cl,  1-C ) :   1.0681 B(  0-Cl,  2-N ) :   0.1695 B(  1-C ,  2-N ) :   2.5770

Dispersion correction           -0.002011191
FINAL SINGLE POINT ENERGY      -553.091900800244

DIPOLE MOMENT
-------------
                                X             Y             Z
Electronic contribution:      0.00000      -0.00000       2.44437
Nuclear contribution   :      0.00000       0.00000      -1.28981
                        -----------------------------------------
Total Dipole Moment    :      0.00000       0.00000       1.15456
                        -----------------------------------------
Magnitude (a.u.)       :      1.15456
Magnitude (Debye)      :      2.93465

VIBRATIONAL FREQUENCIES
-----------------------

Scaling factor for frequencies =  1.000000000 (already applied!)

   0:         0.00 cm**-1
   1:         0.00 cm**-1
   2:         0.00 cm**-1
   3:         0.00 cm**-1
   4:         0.00 cm**-1
   5:       405.41 cm**-1
   6:       405.41 cm**-1
   7:       744.30 cm**-1
   8:      2276.27 cm**-1

IR SPECTRUM
-----------

 Mode    freq (cm**-1)   T**2         TX         TY         TZ
-------------------------------------------------------------------
   5:       405.41    1.587912  (  0.632793   1.089718   0.000005)
   6:       405.41    1.587887  ( -1.089713   0.632782   0.000000)
   7:       744.30    8.600723  (  0.000001   0.000001  -2.932699)
   8:      2276.27   43.240252  (  0.000000   0.000000   6.575732)

--------------------------
THERMOCHEMISTRY AT 298.15K
--------------------------

Temperature         ... 298.15 K
Pressure            ... 1.00 atm
Total Mass          ... 61.47 AMU
The molecule is recognized as being linear

Throughout the following assumptions are being made:
  (1) The electronic state is orbitally nondegenerate
  (2) There are no thermally accessible electronically excited states
  (3) Hindered rotations indicated by low frequency modes are not
      treated as such but are treated as vibrations and this may
      cause some error
  (4) All equations used are the standard statistical mechanics
      equations for an ideal gas
  (5) All vibrations are strictly harmonic

freq.     405.41  E(vib)   ...       0.19
freq.     405.41  E(vib)   ...       0.19
freq.     744.30  E(vib)   ...       0.06
freq.    2276.27  E(vib)   ...       0.00

------------
INNER ENERGY
------------

The inner energy is: U= E(el) + E(ZPE) + E(vib) + E(rot) + E(trans)
    E(el)   - is the total energy from the electronic structure calculation
              = E(kin-el) + E(nuc-el) + E(el-el) + E(nuc-nuc)
    E(ZPE)  - the the zero temperature vibrational energy from the frequency calculation
    E(vib)  - the the finite temperature correction to E(ZPE) due to population
              of excited vibrational states
    E(rot)  - is the rotational thermal energy
    E(trans)- is the translational thermal energy

Summary of contributions to the inner energy U:
Electronic energy                ...   -553.09190080 Eh
Zero point energy                ...      0.00872856 Eh       5.48 kcal/mol
Thermal vibrational correction   ...      0.00070456 Eh       0.44 kcal/mol
Thermal rotational correction    ...      0.00094418 Eh       0.59 kcal/mol
Thermal translational correction ...      0.00141627 Eh       0.89 kcal/mol
-----------------------------------------------------------------------
Total thermal energy                   -553.08010723 Eh

Summary of corrections to the electronic energy:
(perhaps to be used in another calculation)
Total thermal correction                  0.00306501 Eh       1.92 kcal/mol
Non-thermal (ZPE) correction              0.00872856 Eh       5.48 kcal/mol
-----------------------------------------------------------------------
Total correction                          0.01179357 Eh       7.40 kcal/mol

--------
ENTHALPY
--------

The enthalpy is H = U + kB*T
                kB is Boltzmann's constant
Total free energy                 ...   -553.08010723 Eh
Thermal Enthalpy correction       ...      0.00094421 Eh       0.59 kcal/mol
-----------------------------------------------------------------------
Total Enthalpy                    ...   -553.07916302 Eh

Note: Rotational entropy computed according to Herzberg
Infrared and Raman Spectra, Chapter V,1, Van Nostrand Reinhold, 1945
Point Group:  Cinfv, Symmetry Number:   1
Rotational constants in cm-1:     0.000000     0.198742     0.198742

Vibrational entropy computed according to the QRRHO of S. Grimme
Chem.Eur.J. 2012 18 9955

-------
ENTROPY
-------

The entropy contributions are T*S = T*(S(el)+S(vib)+S(rot)+S(trans))
     S(el)   - electronic entropy
     S(vib)  - vibrational entropy
     S(rot)  - rotational entropy
     S(trans)- translational entropy
The entropies will be listed as mutliplied by the temperature to get
units of energy

Electronic entropy                ...      0.00000000 Eh      0.00 kcal/mol
Vibrational entropy               ...      0.00102069 Eh      0.64 kcal/mol
Rotational entropy                ...      0.00750582 Eh      4.71 kcal/mol
Translational entropy             ...      0.01818208 Eh     11.41 kcal/mol
-----------------------------------------------------------------------
Final entropy term                ...      0.02670858 Eh     16.76 kcal/mol

In case the symmetry of your molecule has not been determined correctly
or in case you have a reason to use a different symmetry number we print
out the resulting rotational entropy values for sn=1,12 :
 --------------------------------------------------------
|  sn= 1 | S(rot)=      -0.00820716 Eh     -5.15 kcal/mol|
|  sn= 2 | S(rot)=      -0.00886161 Eh     -5.56 kcal/mol|
|  sn= 3 | S(rot)=      -0.00924445 Eh     -5.80 kcal/mol|
|  sn= 4 | S(rot)=      -0.00951607 Eh     -5.97 kcal/mol|
|  sn= 5 | S(rot)=      -0.00972676 Eh     -6.10 kcal/mol|
|  sn= 6 | S(rot)=      -0.00989890 Eh     -6.21 kcal/mol|
|  sn= 7 | S(rot)=      -0.01004445 Eh     -6.30 kcal/mol|
|  sn= 8 | S(rot)=      -0.01017053 Eh     -6.38 kcal/mol|
|  sn= 9 | S(rot)=      -0.01028174 Eh     -6.45 kcal/mol|
|  sn=10 | S(rot)=      -0.01038122 Eh     -6.51 kcal/mol|
|  sn=11 | S(rot)=      -0.01047121 Eh     -6.57 kcal/mol|
|  sn=12 | S(rot)=      -0.01055336 Eh     -6.62 kcal/mol|
 --------------------------------------------------------

-------------------
GIBBS FREE ENERGY
-------------------

The Gibbs free energy is G = H - T*S

Total enthalpy                    ...   -553.07916302 Eh
Total entropy correction          ...     -0.02670858 Eh    -16.76 kcal/mol
-----------------------------------------------------------------------
Final Gibbs free energy         ...   -553.10587161 Eh

For completeness - the Gibbs free energy minus the electronic energy
G-E(el)                           ...     -0.01397080 Eh     -8.77 kcal/mol

                             ****ORCA TERMINATED NORMALLY****
TOTAL RUN TIME: 0 days 0 hours 2 minutes 48 seconds 164 msec
