                         Program Version 4.2.0 -  RELEASE  -
|  1> #
|  2> # 09_ClF tpssh/aug-cc-pvt(+d)z
|  3> #
|  4> ! tpssh d3bj aug-cc-pvt(+d)z def2/jk opt xyzfile numfreq
|  5>
|  6> *xyz 0 1
|  7> Cl           0.814871513         -0.000000011          0.000000056
|  8> F           -0.814871513          0.000000011         -0.000000056
|  9> *
| 10>
| 11> %pal
| 12> nprocs 24
| 13> end
| 14>
| 15>
| 16>                          ****END OF INPUT****
 Total Charge           Charge          ....    0
 Multiplicity           Mult            ....    1
 Number of Electrons    NEL             ....   26
Dispersion correction           -0.000449184
FINAL SINGLE POINT ENERGY      -560.034372499977
Dispersion correction            ... done
Dispersion correction           -0.000449155
FINAL SINGLE POINT ENERGY      -560.034402721669
Dispersion correction            ... done
Dispersion correction           -0.000449138
FINAL SINGLE POINT ENERGY      -560.034409642249
Dispersion correction            ... done
                    ***********************HURRAY********************

CARTESIAN COORDINATES (ANGSTROEM)
---------------------------------
  Cl     0.818631   -0.000000    0.000000
  F     -0.818631    0.000000   -0.000000

 Multiplicity           Mult            ....    1
 Number of Electrons    NEL             ....   26
 Basis Dimension        Dim             ....  101

ORBITAL ENERGIES
----------------

  NO   OCC          E(Eh)            E(eV)
   0   2.0000    -101.490481     -2761.6964
   1   2.0000     -24.663453      -671.1267
   2   2.0000      -9.464605      -257.5450
   3   2.0000      -7.221313      -196.5019
   4   2.0000      -7.201970      -195.9756
   5   2.0000      -7.201970      -195.9756
   6   2.0000      -1.221553       -33.2401
   7   2.0000      -0.816890       -22.2287
   8   2.0000      -0.524942       -14.2844
   9   2.0000      -0.468145       -12.7389
  10   2.0000      -0.468145       -12.7389
  11   2.0000      -0.318413        -8.6644
  12   2.0000      -0.318413        -8.6644
  13   0.0000      -0.142932        -3.8894
  14   0.0000       0.032928         0.8960
  15   0.0000       0.061129         1.6634
  16   0.0000       0.061129         1.6634
  17   0.0000       0.062119         1.6903

MULLIKEN ATOMIC CHARGES
-----------------------
   0 Cl:    0.290300
   1 F :   -0.290300
Sum of atomic charges:   -0.0000000

LOEWDIN ATOMIC CHARGES
----------------------
   0 Cl:    0.258787
   1 F :   -0.258787

  Mayer bond orders larger than 0.100000
B(  0-Cl,  1-F ) :   0.8138

Dispersion correction           -0.000449137
FINAL SINGLE POINT ENERGY      -560.034409699080

DIPOLE MOMENT
-------------
                                X             Y             Z
Electronic contribution:      0.09366      -0.00000       0.00000
Nuclear contribution   :      0.22098      -0.00000       0.00000
                        -----------------------------------------
Total Dipole Moment    :      0.31464      -0.00000       0.00000
                        -----------------------------------------
Magnitude (a.u.)       :      0.31464
Magnitude (Debye)      :      0.79975

VIBRATIONAL FREQUENCIES
-----------------------

Scaling factor for frequencies =  1.000000000 (already applied!)

   0:         0.00 cm**-1
   1:         0.00 cm**-1
   2:         0.00 cm**-1
   3:         0.00 cm**-1
   4:         0.00 cm**-1
   5:       792.05 cm**-1

IR SPECTRUM
-----------

 Mode    freq (cm**-1)   T**2         TX         TY         TZ
-------------------------------------------------------------------
   5:       792.05   28.702828  (  5.357502  -0.000001   0.000001)

--------------------------
THERMOCHEMISTRY AT 298.15K
--------------------------

Temperature         ... 298.15 K
Pressure            ... 1.00 atm
Total Mass          ... 54.45 AMU
The molecule is recognized as being linear

Throughout the following assumptions are being made:
  (1) The electronic state is orbitally nondegenerate
  (2) There are no thermally accessible electronically excited states
  (3) Hindered rotations indicated by low frequency modes are not
      treated as such but are treated as vibrations and this may
      cause some error
  (4) All equations used are the standard statistical mechanics
      equations for an ideal gas
  (5) All vibrations are strictly harmonic

freq.     792.05  E(vib)   ...       0.05

------------
INNER ENERGY
------------

The inner energy is: U= E(el) + E(ZPE) + E(vib) + E(rot) + E(trans)
    E(el)   - is the total energy from the electronic structure calculation
              = E(kin-el) + E(nuc-el) + E(el-el) + E(nuc-nuc)
    E(ZPE)  - the the zero temperature vibrational energy from the frequency calculation
    E(vib)  - the the finite temperature correction to E(ZPE) due to population
              of excited vibrational states
    E(rot)  - is the rotational thermal energy
    E(trans)- is the translational thermal energy

Summary of contributions to the inner energy U:
Electronic energy                ...   -560.03440970 Eh
Zero point energy                ...      0.00180443 Eh       1.13 kcal/mol
Thermal vibrational correction   ...      0.00008074 Eh       0.05 kcal/mol
Thermal rotational correction    ...      0.00094418 Eh       0.59 kcal/mol
Thermal translational correction ...      0.00141627 Eh       0.89 kcal/mol
-----------------------------------------------------------------------
Total thermal energy                   -560.03016408 Eh

Summary of corrections to the electronic energy:
(perhaps to be used in another calculation)
Total thermal correction                  0.00244119 Eh       1.53 kcal/mol
Non-thermal (ZPE) correction              0.00180443 Eh       1.13 kcal/mol
-----------------------------------------------------------------------
Total correction                          0.00424562 Eh       2.66 kcal/mol

--------
ENTHALPY
--------

The enthalpy is H = U + kB*T
                kB is Boltzmann's constant
Total free energy                 ...   -560.03016408 Eh
Thermal Enthalpy correction       ...      0.00094421 Eh       0.59 kcal/mol
-----------------------------------------------------------------------
Total Enthalpy                    ...   -560.02921988 Eh

Note: Rotational entropy computed according to Herzberg
Infrared and Raman Spectra, Chapter V,1, Van Nostrand Reinhold, 1945
Point Group:  Cinfv, Symmetry Number:   1
Rotational constants in cm-1:     0.000000     0.508400     0.508400

Vibrational entropy computed according to the QRRHO of S. Grimme
Chem.Eur.J. 2012 18 9955

-------
ENTROPY
-------

The entropy contributions are T*S = T*(S(el)+S(vib)+S(rot)+S(trans))
     S(el)   - electronic entropy
     S(vib)  - vibrational entropy
     S(rot)  - rotational entropy
     S(trans)- translational entropy
The entropies will be listed as mutliplied by the temperature to get
units of energy

Electronic entropy                ...      0.00000000 Eh      0.00 kcal/mol
Vibrational entropy               ...      0.00010169 Eh      0.06 kcal/mol
Rotational entropy                ...      0.00661899 Eh      4.15 kcal/mol
Translational entropy             ...      0.01801033 Eh     11.30 kcal/mol
-----------------------------------------------------------------------
Final entropy term                ...      0.02473102 Eh     15.52 kcal/mol

In case the symmetry of your molecule has not been determined correctly
or in case you have a reason to use a different symmetry number we print
out the resulting rotational entropy values for sn=1,12 :
 --------------------------------------------------------
|  sn= 1 | S(rot)=             -nan Eh      -nan kcal/mol|
|  sn= 2 | S(rot)=             -nan Eh      -nan kcal/mol|
|  sn= 3 | S(rot)=             -nan Eh      -nan kcal/mol|
|  sn= 4 | S(rot)=             -nan Eh      -nan kcal/mol|
|  sn= 5 | S(rot)=             -nan Eh      -nan kcal/mol|
|  sn= 6 | S(rot)=             -nan Eh      -nan kcal/mol|
|  sn= 7 | S(rot)=             -nan Eh      -nan kcal/mol|
|  sn= 8 | S(rot)=             -nan Eh      -nan kcal/mol|
|  sn= 9 | S(rot)=             -nan Eh      -nan kcal/mol|
|  sn=10 | S(rot)=             -nan Eh      -nan kcal/mol|
|  sn=11 | S(rot)=             -nan Eh      -nan kcal/mol|
|  sn=12 | S(rot)=             -nan Eh      -nan kcal/mol|
 --------------------------------------------------------

-------------------
GIBBS FREE ENERGY
-------------------

The Gibbs free energy is G = H - T*S

Total enthalpy                    ...   -560.02921988 Eh
Total entropy correction          ...     -0.02473102 Eh    -15.52 kcal/mol
-----------------------------------------------------------------------
Final Gibbs free energy         ...   -560.05395089 Eh

For completeness - the Gibbs free energy minus the electronic energy
G-E(el)                           ...     -0.01954119 Eh    -12.26 kcal/mol

                             ****ORCA TERMINATED NORMALLY****
TOTAL RUN TIME: 0 days 0 hours 0 minutes 54 seconds 853 msec
