                         Program Version 4.2.0 -  RELEASE  -
|  1> #
|  2> # 10_CO2 tpssh/aug-cc-pvt(+d)z
|  3> #
|  4> ! tpssh d3bj aug-cc-pvt(+d)z def2/jk opt xyzfile numfreq
|  5>
|  6> *xyz 0 1
|  7> O           -1.161057866         -0.000000006         -0.000000007
|  8> O            1.161057864          0.000000007          0.000000007
|  9> C            0.000000003         -0.000000000         -0.000000000
| 10> *
| 11>
| 12> %pal
| 13> nprocs 24
| 14> end
| 15>
| 16>
| 17>                          ****END OF INPUT****
 Total Charge           Charge          ....    0
 Multiplicity           Mult            ....    1
 Number of Electrons    NEL             ....   22
Dispersion correction           -0.001035177
FINAL SINGLE POINT ENERGY      -188.662866255679
Dispersion correction            ... done
Dispersion correction           -0.001034939
FINAL SINGLE POINT ENERGY      -188.662902859783
Dispersion correction            ... done
Dispersion correction           -0.001034902
FINAL SINGLE POINT ENERGY      -188.662902276005
Dispersion correction            ... done
                    ***********************HURRAY********************

CARTESIAN COORDINATES (ANGSTROEM)
---------------------------------
  O     -1.164490   -0.000000   -0.000000
  O      1.164490    0.000000    0.000000
  C      0.000000    0.000000    0.000000

 Multiplicity           Mult            ....    1
 Number of Electrons    NEL             ....   22
 Basis Dimension        Dim             ....  138

ORBITAL ENERGIES
----------------

  NO   OCC          E(Eh)            E(eV)
   0   2.0000     -19.138670      -520.7897
   1   2.0000     -19.138645      -520.7890
   2   2.0000     -10.298478      -280.2358
   3   2.0000      -1.139939       -31.0193
   4   2.0000      -1.099165       -29.9098
   5   2.0000      -0.549465       -14.9517
   6   2.0000      -0.502302       -13.6683
   7   2.0000      -0.499349       -13.5880
   8   2.0000      -0.499349       -13.5880
   9   2.0000      -0.359892        -9.7932
  10   2.0000      -0.359892        -9.7932
  11   0.0000      -0.017120        -0.4659
  12   0.0000       0.010597         0.2884
  13   0.0000       0.010597         0.2884
  14   0.0000       0.043895         1.1944
  15   0.0000       0.043895         1.1944

MULLIKEN ATOMIC CHARGES
-----------------------
   0 O :   -0.175365
   1 O :   -0.175365
   2 C :    0.350730
Sum of atomic charges:   -0.0000000

LOEWDIN ATOMIC CHARGES
----------------------
   0 O :    0.368996
   1 O :    0.368996
   2 C :   -0.737992

  Mayer bond orders larger than 0.100000
B(  0-O ,  1-O ) :   0.1230 B(  0-O ,  2-C ) :   1.9763 B(  1-O ,  2-C ) :   1.9763

Dispersion correction           -0.001034901
FINAL SINGLE POINT ENERGY      -188.662902257449

DIPOLE MOMENT
-------------
                                X             Y             Z
Electronic contribution:     -0.00000       0.00000       0.00000
Nuclear contribution   :      0.00000      -0.00000      -0.00000
                        -----------------------------------------
Total Dipole Moment    :     -0.00000       0.00000       0.00000
                        -----------------------------------------
Magnitude (a.u.)       :      0.00000
Magnitude (Debye)      :      0.00000

VIBRATIONAL FREQUENCIES
-----------------------

Scaling factor for frequencies =  1.000000000 (already applied!)

   0:         0.00 cm**-1
   1:         0.00 cm**-1
   2:         0.00 cm**-1
   3:         0.00 cm**-1
   4:         0.00 cm**-1
   5:       666.22 cm**-1
   6:       666.23 cm**-1
   7:      1351.65 cm**-1
   8:      2386.62 cm**-1

IR SPECTRUM
-----------

 Mode    freq (cm**-1)   T**2         TX         TY         TZ
-------------------------------------------------------------------
   5:       666.22   25.709821  ( -0.000001   0.197510   5.066637)
   6:       666.23   25.709824  ( -0.000001  -5.066637   0.197516)
   7:      1351.65    0.000000  (  0.000000   0.000001   0.000000)
   8:      2386.62  614.569825  (-24.790519  -0.000001   0.000000)

--------------------------
THERMOCHEMISTRY AT 298.15K
--------------------------

Temperature         ... 298.15 K
Pressure            ... 1.00 atm
Total Mass          ... 44.01 AMU
The molecule is recognized as being linear

Throughout the following assumptions are being made:
  (1) The electronic state is orbitally nondegenerate
  (2) There are no thermally accessible electronically excited states
  (3) Hindered rotations indicated by low frequency modes are not
      treated as such but are treated as vibrations and this may
      cause some error
  (4) All equations used are the standard statistical mechanics
      equations for an ideal gas
  (5) All vibrations are strictly harmonic

freq.     666.22  E(vib)   ...       0.08
freq.     666.23  E(vib)   ...       0.08
freq.    1351.65  E(vib)   ...       0.01
freq.    2386.62  E(vib)   ...       0.00

------------
INNER ENERGY
------------

The inner energy is: U= E(el) + E(ZPE) + E(vib) + E(rot) + E(trans)
    E(el)   - is the total energy from the electronic structure calculation
              = E(kin-el) + E(nuc-el) + E(el-el) + E(nuc-nuc)
    E(ZPE)  - the the zero temperature vibrational energy from the frequency calculation
    E(vib)  - the the finite temperature correction to E(ZPE) due to population
              of excited vibrational states
    E(rot)  - is the rotational thermal energy
    E(trans)- is the translational thermal energy

Summary of contributions to the inner energy U:
Electronic energy                ...   -188.66290226 Eh
Zero point energy                ...      0.01155195 Eh       7.25 kcal/mol
Thermal vibrational correction   ...      0.00026318 Eh       0.17 kcal/mol
Thermal rotational correction    ...      0.00094418 Eh       0.59 kcal/mol
Thermal translational correction ...      0.00141627 Eh       0.89 kcal/mol
-----------------------------------------------------------------------
Total thermal energy                   -188.64872667 Eh

Summary of corrections to the electronic energy:
(perhaps to be used in another calculation)
Total thermal correction                  0.00262364 Eh       1.65 kcal/mol
Non-thermal (ZPE) correction              0.01155195 Eh       7.25 kcal/mol
-----------------------------------------------------------------------
Total correction                          0.01417559 Eh       8.90 kcal/mol

--------
ENTHALPY
--------

The enthalpy is H = U + kB*T
                kB is Boltzmann's constant
Total free energy                 ...   -188.64872667 Eh
Thermal Enthalpy correction       ...      0.00094421 Eh       0.59 kcal/mol
-----------------------------------------------------------------------
Total Enthalpy                    ...   -188.64778246 Eh

Note: Rotational entropy computed according to Herzberg
Infrared and Raman Spectra, Chapter V,1, Van Nostrand Reinhold, 1945
Point Group:  Dinfh, Symmetry Number:   2
Rotational constants in cm-1:     0.000000     0.388511     0.388511

Vibrational entropy computed according to the QRRHO of S. Grimme
Chem.Eur.J. 2012 18 9955

-------
ENTROPY
-------

The entropy contributions are T*S = T*(S(el)+S(vib)+S(rot)+S(trans))
     S(el)   - electronic entropy
     S(vib)  - vibrational entropy
     S(rot)  - rotational entropy
     S(trans)- translational entropy
The entropies will be listed as mutliplied by the temperature to get
units of energy

Electronic entropy                ...      0.00000000 Eh      0.00 kcal/mol
Vibrational entropy               ...      0.00034227 Eh      0.21 kcal/mol
Rotational entropy                ...      0.00621847 Eh      3.90 kcal/mol
Translational entropy             ...      0.01770880 Eh     11.11 kcal/mol
-----------------------------------------------------------------------
Final entropy term                ...      0.02426954 Eh     15.23 kcal/mol

In case the symmetry of your molecule has not been determined correctly
or in case you have a reason to use a different symmetry number we print
out the resulting rotational entropy values for sn=1,12 :
 --------------------------------------------------------
|  sn= 1 | S(rot)=             -nan Eh      -nan kcal/mol|
|  sn= 2 | S(rot)=             -nan Eh      -nan kcal/mol|
|  sn= 3 | S(rot)=             -nan Eh      -nan kcal/mol|
|  sn= 4 | S(rot)=             -nan Eh      -nan kcal/mol|
|  sn= 5 | S(rot)=             -nan Eh      -nan kcal/mol|
|  sn= 6 | S(rot)=             -nan Eh      -nan kcal/mol|
|  sn= 7 | S(rot)=             -nan Eh      -nan kcal/mol|
|  sn= 8 | S(rot)=             -nan Eh      -nan kcal/mol|
|  sn= 9 | S(rot)=             -nan Eh      -nan kcal/mol|
|  sn=10 | S(rot)=             -nan Eh      -nan kcal/mol|
|  sn=11 | S(rot)=             -nan Eh      -nan kcal/mol|
|  sn=12 | S(rot)=             -nan Eh      -nan kcal/mol|
 --------------------------------------------------------

-------------------
GIBBS FREE ENERGY
-------------------

The Gibbs free energy is G = H - T*S

Total enthalpy                    ...   -188.64778246 Eh
Total entropy correction          ...     -0.02426954 Eh    -15.23 kcal/mol
-----------------------------------------------------------------------
Final Gibbs free energy         ...   -188.67205201 Eh

For completeness - the Gibbs free energy minus the electronic energy
G-E(el)                           ...     -0.00914975 Eh     -5.74 kcal/mol

                             ****ORCA TERMINATED NORMALLY****
TOTAL RUN TIME: 0 days 0 hours 1 minutes 24 seconds 657 msec
