                         Program Version 4.2.0 -  RELEASE  -
|  1> #
|  2> # 11_CO tpssh/aug-cc-pvt(+d)z
|  3> #
|  4> ! tpssh d3bj aug-cc-pvt(+d)z def2/jk opt xyzfile numfreq
|  5>
|  6> *xyz 0 1
|  7> O            0.563546865          0.000000013          0.000000013
|  8> C           -0.563546865         -0.000000013         -0.000000013
|  9> *
| 10>
| 11> %pal
| 12> nprocs 24
| 13> end
| 14>
| 15>
| 16>                          ****END OF INPUT****
 Total Charge           Charge          ....    0
 Multiplicity           Mult            ....    1
 Number of Electrons    NEL             ....   14
Dispersion correction           -0.000453222
FINAL SINGLE POINT ENERGY      -113.356333561341
Dispersion correction            ... done
Dispersion correction           -0.000453219
FINAL SINGLE POINT ENERGY      -113.356356030401
Dispersion correction            ... done
Dispersion correction           -0.000453218
FINAL SINGLE POINT ENERGY      -113.356356422751
Dispersion correction            ... done
                    ***********************HURRAY********************

CARTESIAN COORDINATES (ANGSTROEM)
---------------------------------
  O      0.565198    0.000000    0.000000
  C     -0.565198   -0.000000   -0.000000

 Multiplicity           Mult            ....    1
 Number of Electrons    NEL             ....   14
 Basis Dimension        Dim             ....   92

ORBITAL ENERGIES
----------------

  NO   OCC          E(Eh)            E(eV)
   0   2.0000     -19.161784      -521.4187
   1   2.0000     -10.231338      -278.4089
   2   2.0000      -1.142247       -31.0821
   3   2.0000      -0.559188       -15.2163
   4   2.0000      -0.460006       -12.5174
   5   2.0000      -0.460006       -12.5174
   6   2.0000      -0.364923        -9.9301
   7   0.0000      -0.050135        -1.3642
   8   0.0000      -0.050135        -1.3642
   9   0.0000       0.025356         0.6900
  10   0.0000       0.049745         1.3536
  11   0.0000       0.055977         1.5232

MULLIKEN ATOMIC CHARGES
-----------------------
   0 O :   -0.101539
   1 C :    0.101539
Sum of atomic charges:   -0.0000000

LOEWDIN ATOMIC CHARGES
----------------------
   0 O :    0.179923
   1 C :   -0.179923

  Mayer bond orders larger than 0.100000
B(  0-O ,  1-C ) :   2.4682

Dispersion correction           -0.000453218
FINAL SINGLE POINT ENERGY      -113.356356421342

DIPOLE MOMENT
-------------
                                X             Y             Z
Electronic contribution:      0.04679      -0.00000      -0.00000
Nuclear contribution   :      0.00717       0.00000       0.00000
                        -----------------------------------------
Total Dipole Moment    :      0.05396      -0.00000      -0.00000
                        -----------------------------------------
Magnitude (a.u.)       :      0.05396
Magnitude (Debye)      :      0.13715

VIBRATIONAL FREQUENCIES
-----------------------

Scaling factor for frequencies =  1.000000000 (already applied!)

   0:         0.00 cm**-1
   1:         0.00 cm**-1
   2:         0.00 cm**-1
   3:         0.00 cm**-1
   4:         0.00 cm**-1
   5:      2174.32 cm**-1

IR SPECTRUM
-----------

 Mode    freq (cm**-1)   T**2         TX         TY         TZ
-------------------------------------------------------------------
   5:      2174.32   75.555853  ( -8.692287   0.000001  -0.000001)

--------------------------
THERMOCHEMISTRY AT 298.15K
--------------------------

Temperature         ... 298.15 K
Pressure            ... 1.00 atm
Total Mass          ... 28.01 AMU
The molecule is recognized as being linear

Throughout the following assumptions are being made:
  (1) The electronic state is orbitally nondegenerate
  (2) There are no thermally accessible electronically excited states
  (3) Hindered rotations indicated by low frequency modes are not
      treated as such but are treated as vibrations and this may
      cause some error
  (4) All equations used are the standard statistical mechanics
      equations for an ideal gas
  (5) All vibrations are strictly harmonic

freq.    2174.32  E(vib)   ...       0.00

------------
INNER ENERGY
------------

The inner energy is: U= E(el) + E(ZPE) + E(vib) + E(rot) + E(trans)
    E(el)   - is the total energy from the electronic structure calculation
              = E(kin-el) + E(nuc-el) + E(el-el) + E(nuc-nuc)
    E(ZPE)  - the the zero temperature vibrational energy from the frequency calculation
    E(vib)  - the the finite temperature correction to E(ZPE) due to population
              of excited vibrational states
    E(rot)  - is the rotational thermal energy
    E(trans)- is the translational thermal energy

Summary of contributions to the inner energy U:
Electronic energy                ...   -113.35635642 Eh
Zero point energy                ...      0.00495347 Eh       3.11 kcal/mol
Thermal vibrational correction   ...      0.00000027 Eh       0.00 kcal/mol
Thermal rotational correction    ...      0.00094418 Eh       0.59 kcal/mol
Thermal translational correction ...      0.00141627 Eh       0.89 kcal/mol
-----------------------------------------------------------------------
Total thermal energy                   -113.34904222 Eh

Summary of corrections to the electronic energy:
(perhaps to be used in another calculation)
Total thermal correction                  0.00236073 Eh       1.48 kcal/mol
Non-thermal (ZPE) correction              0.00495347 Eh       3.11 kcal/mol
-----------------------------------------------------------------------
Total correction                          0.00731420 Eh       4.59 kcal/mol

--------
ENTHALPY
--------

The enthalpy is H = U + kB*T
                kB is Boltzmann's constant
Total free energy                 ...   -113.34904222 Eh
Thermal Enthalpy correction       ...      0.00094421 Eh       0.59 kcal/mol
-----------------------------------------------------------------------
Total Enthalpy                    ...   -113.34809801 Eh

Note: Rotational entropy computed according to Herzberg
Infrared and Raman Spectra, Chapter V,1, Van Nostrand Reinhold, 1945
Point Group:  Cinfv, Symmetry Number:   1
Rotational constants in cm-1:     0.000000     1.922989     1.922989

Vibrational entropy computed according to the QRRHO of S. Grimme
Chem.Eur.J. 2012 18 9955

-------
ENTROPY
-------

The entropy contributions are T*S = T*(S(el)+S(vib)+S(rot)+S(trans))
     S(el)   - electronic entropy
     S(vib)  - vibrational entropy
     S(rot)  - rotational entropy
     S(trans)- translational entropy
The entropies will be listed as mutliplied by the temperature to get
units of energy

Electronic entropy                ...      0.00000000 Eh      0.00 kcal/mol
Vibrational entropy               ...      0.00000030 Eh      0.00 kcal/mol
Rotational entropy                ...      0.00536288 Eh      3.37 kcal/mol
Translational entropy             ...      0.01706888 Eh     10.71 kcal/mol
-----------------------------------------------------------------------
Final entropy term                ...      0.02243206 Eh     14.08 kcal/mol

In case the symmetry of your molecule has not been determined correctly
or in case you have a reason to use a different symmetry number we print
out the resulting rotational entropy values for sn=1,12 :
 --------------------------------------------------------
|  sn= 1 | S(rot)=             -nan Eh      -nan kcal/mol|
|  sn= 2 | S(rot)=             -nan Eh      -nan kcal/mol|
|  sn= 3 | S(rot)=             -nan Eh      -nan kcal/mol|
|  sn= 4 | S(rot)=             -nan Eh      -nan kcal/mol|
|  sn= 5 | S(rot)=             -nan Eh      -nan kcal/mol|
|  sn= 6 | S(rot)=             -nan Eh      -nan kcal/mol|
|  sn= 7 | S(rot)=             -nan Eh      -nan kcal/mol|
|  sn= 8 | S(rot)=             -nan Eh      -nan kcal/mol|
|  sn= 9 | S(rot)=             -nan Eh      -nan kcal/mol|
|  sn=10 | S(rot)=             -nan Eh      -nan kcal/mol|
|  sn=11 | S(rot)=             -nan Eh      -nan kcal/mol|
|  sn=12 | S(rot)=             -nan Eh      -nan kcal/mol|
 --------------------------------------------------------

-------------------
GIBBS FREE ENERGY
-------------------

The Gibbs free energy is G = H - T*S

Total enthalpy                    ...   -113.34809801 Eh
Total entropy correction          ...     -0.02243206 Eh    -14.08 kcal/mol
-----------------------------------------------------------------------
Final Gibbs free energy         ...   -113.37053007 Eh

For completeness - the Gibbs free energy minus the electronic energy
G-E(el)                           ...     -0.01417365 Eh     -8.89 kcal/mol

                             ****ORCA TERMINATED NORMALLY****
TOTAL RUN TIME: 0 days 0 hours 0 minutes 31 seconds 841 msec
