                         Program Version 4.2.0 -  RELEASE  -
|  1> #
|  2> # 12_CS2 tpssh/aug-cc-pvt(+d)z
|  3> #
|  4> ! tpssh d3bj aug-cc-pvt(+d)z def2/jk opt xyzfile numfreq
|  5>
|  6> *xyz 0 1
|  7> S           0.000000000         0.000000000          1.550022582
|  8> C           0.000000000         0.000000000          0.000000099
|  9> S           0.000000000         0.000000000         -1.550022427
| 10> *
| 11>
| 12> %pal
| 13> nprocs 24
| 14> end
| 15>
| 16>
| 17>                          ****END OF INPUT****
 Total Charge           Charge          ....    0
 Multiplicity           Mult            ....    1
 Number of Electrons    NEL             ....   38
Dispersion correction           -0.003263820
FINAL SINGLE POINT ENERGY      -834.585442241873
Dispersion correction            ... done
Dispersion correction           -0.003261977
FINAL SINGLE POINT ENERGY      -834.585473952092
Dispersion correction            ... done
Dispersion correction           -0.003260727
FINAL SINGLE POINT ENERGY      -834.585479245229
Dispersion correction            ... done
                    ***********************HURRAY********************

CARTESIAN COORDINATES (ANGSTROEM)
---------------------------------
  S      0.000000    0.000000    1.554508
  C     -0.000000   -0.000000    0.000000
  S      0.000000    0.000000   -1.554508

 Multiplicity           Mult            ....    1
 Number of Electrons    NEL             ....   38
 Basis Dimension        Dim             ....  156

ORBITAL ENERGIES
----------------

  NO   OCC          E(Eh)            E(eV)
   0   2.0000     -88.777267     -2415.7522
   1   2.0000     -88.777266     -2415.7522
   2   2.0000     -10.238348      -278.5996
   3   2.0000      -7.902315      -215.0329
   4   2.0000      -7.902311      -215.0328
   5   2.0000      -5.852579      -159.2568
   6   2.0000      -5.852579      -159.2568
   7   2.0000      -5.848355      -159.1418
   8   2.0000      -5.848355      -159.1418
   9   2.0000      -5.848354      -159.1418
  10   2.0000      -5.848354      -159.1418
  11   2.0000      -0.838076       -22.8052
  12   2.0000      -0.748856       -20.3774
  13   2.0000      -0.497296       -13.5321
  14   2.0000      -0.417192       -11.3524
  15   2.0000      -0.378331       -10.2949
  16   2.0000      -0.378331       -10.2949
  17   2.0000      -0.268122        -7.2960
  18   2.0000      -0.268122        -7.2960
  19   0.0000      -0.091429        -2.4879
  20   0.0000      -0.091429        -2.4879
  21   0.0000       0.000412         0.0112
  22   0.0000       0.017613         0.4793
  23   0.0000       0.022152         0.6028

MULLIKEN ATOMIC CHARGES
-----------------------
   0 S :   -0.037066
   1 C :    0.074132
   2 S :   -0.037066
Sum of atomic charges:    0.0000000

LOEWDIN ATOMIC CHARGES
----------------------
   0 S :    0.798989
   1 C :   -1.597977
   2 S :    0.798989

  Mayer bond orders larger than 0.100000
B(  0-S ,  1-C ) :   1.6151 B(  0-S ,  2-S ) :   0.4030 B(  1-C ,  2-S ) :   1.6151

Dispersion correction           -0.003260712
FINAL SINGLE POINT ENERGY      -834.585479227568

DIPOLE MOMENT
-------------
                                X             Y             Z
Electronic contribution:     -0.00000       0.00000       0.00000
Nuclear contribution   :     -0.00000      -0.00000       0.00000
                        -----------------------------------------
Total Dipole Moment    :     -0.00000       0.00000       0.00000
                        -----------------------------------------
Magnitude (a.u.)       :      0.00000
Magnitude (Debye)      :      0.00000

VIBRATIONAL FREQUENCIES
-----------------------

Scaling factor for frequencies =  1.000000000 (already applied!)

   0:         0.00 cm**-1
   1:         0.00 cm**-1
   2:         0.00 cm**-1
   3:         0.00 cm**-1
   4:         0.00 cm**-1
   5:       420.26 cm**-1
   6:       420.27 cm**-1
   7:       673.42 cm**-1
   8:      1561.83 cm**-1

IR SPECTRUM
-----------

 Mode    freq (cm**-1)   T**2         TX         TY         TZ
-------------------------------------------------------------------
   5:       420.26   24.562968  (  3.474475   3.534259  -0.000001)
   6:       420.27   24.563045  (  3.534267  -3.474478   0.000001)
   7:       673.42    0.000000  ( -0.000005   0.000006  -0.000025)
   8:      1561.83  630.783797  ( -0.000000   0.000003  25.115410)

--------------------------
THERMOCHEMISTRY AT 298.15K
--------------------------

Temperature         ... 298.15 K
Pressure            ... 1.00 atm
Total Mass          ... 76.13 AMU
The molecule is recognized as being linear

Throughout the following assumptions are being made:
  (1) The electronic state is orbitally nondegenerate
  (2) There are no thermally accessible electronically excited states
  (3) Hindered rotations indicated by low frequency modes are not
      treated as such but are treated as vibrations and this may
      cause some error
  (4) All equations used are the standard statistical mechanics
      equations for an ideal gas
  (5) All vibrations are strictly harmonic

freq.     420.26  E(vib)   ...       0.18
freq.     420.27  E(vib)   ...       0.18
freq.     673.42  E(vib)   ...       0.08
freq.    1561.83  E(vib)   ...       0.00

------------
INNER ENERGY
------------

The inner energy is: U= E(el) + E(ZPE) + E(vib) + E(rot) + E(trans)
    E(el)   - is the total energy from the electronic structure calculation
              = E(kin-el) + E(nuc-el) + E(el-el) + E(nuc-nuc)
    E(ZPE)  - the the zero temperature vibrational energy from the frequency calculation
    E(vib)  - the the finite temperature correction to E(ZPE) due to population
              of excited vibrational states
    E(rot)  - is the rotational thermal energy
    E(trans)- is the translational thermal energy

Summary of contributions to the inner energy U:
Electronic energy                ...   -834.58547923 Eh
Zero point energy                ...      0.00700716 Eh       4.40 kcal/mol
Thermal vibrational correction   ...      0.00070796 Eh       0.44 kcal/mol
Thermal rotational correction    ...      0.00094418 Eh       0.59 kcal/mol
Thermal translational correction ...      0.00141627 Eh       0.89 kcal/mol
-----------------------------------------------------------------------
Total thermal energy                   -834.57540365 Eh

Summary of corrections to the electronic energy:
(perhaps to be used in another calculation)
Total thermal correction                  0.00306842 Eh       1.93 kcal/mol
Non-thermal (ZPE) correction              0.00700716 Eh       4.40 kcal/mol
-----------------------------------------------------------------------
Total correction                          0.01007557 Eh       6.32 kcal/mol

--------
ENTHALPY
--------

The enthalpy is H = U + kB*T
                kB is Boltzmann's constant
Total free energy                 ...   -834.57540365 Eh
Thermal Enthalpy correction       ...      0.00094421 Eh       0.59 kcal/mol
-----------------------------------------------------------------------
Total Enthalpy                    ...   -834.57445944 Eh

Note: Rotational entropy computed according to Herzberg
Infrared and Raman Spectra, Chapter V,1, Van Nostrand Reinhold, 1945
Point Group:  Dinfh, Symmetry Number:   2
Rotational constants in cm-1:     0.000000     0.108797     0.108797

Vibrational entropy computed according to the QRRHO of S. Grimme
Chem.Eur.J. 2012 18 9955

-------
ENTROPY
-------

The entropy contributions are T*S = T*(S(el)+S(vib)+S(rot)+S(trans))
     S(el)   - electronic entropy
     S(vib)  - vibrational entropy
     S(rot)  - rotational entropy
     S(trans)- translational entropy
The entropies will be listed as mutliplied by the temperature to get
units of energy

Electronic entropy                ...      0.00000000 Eh      0.00 kcal/mol
Vibrational entropy               ...      0.00101402 Eh      0.64 kcal/mol
Rotational entropy                ...      0.00742026 Eh      4.66 kcal/mol
Translational entropy             ...      0.01848500 Eh     11.60 kcal/mol
-----------------------------------------------------------------------
Final entropy term                ...      0.02691928 Eh     16.89 kcal/mol

In case the symmetry of your molecule has not been determined correctly
or in case you have a reason to use a different symmetry number we print
out the resulting rotational entropy values for sn=1,12 :
 --------------------------------------------------------
|  sn= 1 | S(rot)=      -0.00605023 Eh     -3.80 kcal/mol|
|  sn= 2 | S(rot)=      -0.00670469 Eh     -4.21 kcal/mol|
|  sn= 3 | S(rot)=      -0.00708752 Eh     -4.45 kcal/mol|
|  sn= 4 | S(rot)=      -0.00735915 Eh     -4.62 kcal/mol|
|  sn= 5 | S(rot)=      -0.00756983 Eh     -4.75 kcal/mol|
|  sn= 6 | S(rot)=      -0.00774198 Eh     -4.86 kcal/mol|
|  sn= 7 | S(rot)=      -0.00788752 Eh     -4.95 kcal/mol|
|  sn= 8 | S(rot)=      -0.00801360 Eh     -5.03 kcal/mol|
|  sn= 9 | S(rot)=      -0.00812481 Eh     -5.10 kcal/mol|
|  sn=10 | S(rot)=      -0.00822429 Eh     -5.16 kcal/mol|
|  sn=11 | S(rot)=      -0.00831428 Eh     -5.22 kcal/mol|
|  sn=12 | S(rot)=      -0.00839643 Eh     -5.27 kcal/mol|
 --------------------------------------------------------

-------------------
GIBBS FREE ENERGY
-------------------

The Gibbs free energy is G = H - T*S

Total enthalpy                    ...   -834.57445944 Eh
Total entropy correction          ...     -0.02691928 Eh    -16.89 kcal/mol
-----------------------------------------------------------------------
Final Gibbs free energy         ...   -834.60137872 Eh

For completeness - the Gibbs free energy minus the electronic energy
G-E(el)                           ...     -0.01589949 Eh     -9.98 kcal/mol

                             ****ORCA TERMINATED NORMALLY****
TOTAL RUN TIME: 0 days 0 hours 3 minutes 56 seconds 237 msec
