                         Program Version 4.2.0 -  RELEASE  -
|  1> #
|  2> # 13_CS tpssh/aug-cc-pvt(+d)z
|  3> #
|  4> ! tpssh d3bj aug-cc-pvt(+d)z def2/jk opt xyzfile numfreq
|  5>
|  6> *xyz 0 1
|  7> C           -0.000000200         -0.000000107          0.006732513
|  8> S            0.000000200          0.000000107          1.532967485
|  9> *
| 10>
| 11> %pal
| 12> nprocs 24
| 13> end
| 14>
| 15>
| 16>                          ****END OF INPUT****
 Total Charge           Charge          ....    0
 Multiplicity           Mult            ....    1
 Number of Electrons    NEL             ....   22
Dispersion correction           -0.001120859
FINAL SINGLE POINT ENERGY      -436.264283801946
Dispersion correction            ... done
Dispersion correction           -0.001120813
FINAL SINGLE POINT ENERGY      -436.264379232148
Dispersion correction            ... done
Dispersion correction           -0.001120777
FINAL SINGLE POINT ENERGY      -436.264402352618
Dispersion correction            ... done
                    ***********************HURRAY********************

CARTESIAN COORDINATES (ANGSTROEM)
---------------------------------
  C     -0.000000   -0.000000    0.001339
  S      0.000000    0.000000    1.538361

 Multiplicity           Mult            ....    1
 Number of Electrons    NEL             ....   22
 Basis Dimension        Dim             ....  101

ORBITAL ENERGIES
----------------

  NO   OCC          E(Eh)            E(eV)
   0   2.0000     -88.793862     -2416.2038
   1   2.0000     -10.216719      -278.0111
   2   2.0000      -7.921865      -215.5649
   3   2.0000      -5.869474      -159.7165
   4   2.0000      -5.869474      -159.7165
   5   2.0000      -5.868367      -159.6864
   6   2.0000      -0.815432       -22.1890
   7   2.0000      -0.511825       -13.9275
   8   2.0000      -0.346792        -9.4367
   9   2.0000      -0.346792        -9.4367
  10   2.0000      -0.300364        -8.1733
  11   0.0000      -0.106821        -2.9067
  12   0.0000      -0.106821        -2.9067
  13   0.0000       0.013335         0.3629
  14   0.0000       0.025060         0.6819
  15   0.0000       0.045293         1.2325

MULLIKEN ATOMIC CHARGES
-----------------------
   0 C :   -0.417373
   1 S :    0.417373
Sum of atomic charges:    0.0000000

LOEWDIN ATOMIC CHARGES
----------------------
   0 C :   -0.666489
   1 S :    0.666489

  Mayer bond orders larger than 0.100000
B(  0-C ,  1-S ) :   2.2442

Dispersion correction           -0.001120776
FINAL SINGLE POINT ENERGY      -436.264402388715

DIPOLE MOMENT
-------------
                                X             Y             Z
Electronic contribution:      0.00000       0.00000       0.75838
Nuclear contribution   :     -0.00000      -0.00000      -0.01213
                        -----------------------------------------
Total Dipole Moment    :      0.00000       0.00000       0.74626
                        -----------------------------------------
Magnitude (a.u.)       :      0.74626
Magnitude (Debye)      :      1.89683

VIBRATIONAL FREQUENCIES
-----------------------

Scaling factor for frequencies =  1.000000000 (already applied!)

   0:         0.00 cm**-1
   1:         0.00 cm**-1
   2:         0.00 cm**-1
   3:         0.00 cm**-1
   4:         0.00 cm**-1
   5:      1292.86 cm**-1

IR SPECTRUM
-----------

 Mode    freq (cm**-1)   T**2         TX         TY         TZ
-------------------------------------------------------------------
   5:      1292.86   87.498076  ( -0.000003  -0.000003   9.354041)

--------------------------
THERMOCHEMISTRY AT 298.15K
--------------------------

Temperature         ... 298.15 K
Pressure            ... 1.00 atm
Total Mass          ... 44.07 AMU
The molecule is recognized as being linear

Throughout the following assumptions are being made:
  (1) The electronic state is orbitally nondegenerate
  (2) There are no thermally accessible electronically excited states
  (3) Hindered rotations indicated by low frequency modes are not
      treated as such but are treated as vibrations and this may
      cause some error
  (4) All equations used are the standard statistical mechanics
      equations for an ideal gas
  (5) All vibrations are strictly harmonic

freq.    1292.86  E(vib)   ...       0.01

------------
INNER ENERGY
------------

The inner energy is: U= E(el) + E(ZPE) + E(vib) + E(rot) + E(trans)
    E(el)   - is the total energy from the electronic structure calculation
              = E(kin-el) + E(nuc-el) + E(el-el) + E(nuc-nuc)
    E(ZPE)  - the the zero temperature vibrational energy from the frequency calculation
    E(vib)  - the the finite temperature correction to E(ZPE) due to population
              of excited vibrational states
    E(rot)  - is the rotational thermal energy
    E(trans)- is the translational thermal energy

Summary of contributions to the inner energy U:
Electronic energy                ...   -436.26440239 Eh
Zero point energy                ...      0.00294536 Eh       1.85 kcal/mol
Thermal vibrational correction   ...      0.00001152 Eh       0.01 kcal/mol
Thermal rotational correction    ...      0.00094418 Eh       0.59 kcal/mol
Thermal translational correction ...      0.00141627 Eh       0.89 kcal/mol
-----------------------------------------------------------------------
Total thermal energy                   -436.25908505 Eh

Summary of corrections to the electronic energy:
(perhaps to be used in another calculation)
Total thermal correction                  0.00237197 Eh       1.49 kcal/mol
Non-thermal (ZPE) correction              0.00294536 Eh       1.85 kcal/mol
-----------------------------------------------------------------------
Total correction                          0.00531733 Eh       3.34 kcal/mol

--------
ENTHALPY
--------

The enthalpy is H = U + kB*T
                kB is Boltzmann's constant
Total free energy                 ...   -436.25908505 Eh
Thermal Enthalpy correction       ...      0.00094421 Eh       0.59 kcal/mol
-----------------------------------------------------------------------
Total Enthalpy                    ...   -436.25814084 Eh

Note: Rotational entropy computed according to Herzberg
Infrared and Raman Spectra, Chapter V,1, Van Nostrand Reinhold, 1945
Point Group:  Cinfv, Symmetry Number:   1
Rotational constants in cm-1:     0.000000     0.816670     0.816670

Vibrational entropy computed according to the QRRHO of S. Grimme
Chem.Eur.J. 2012 18 9955

-------
ENTROPY
-------

The entropy contributions are T*S = T*(S(el)+S(vib)+S(rot)+S(trans))
     S(el)   - electronic entropy
     S(vib)  - vibrational entropy
     S(rot)  - rotational entropy
     S(trans)- translational entropy
The entropies will be listed as mutliplied by the temperature to get
units of energy

Electronic entropy                ...      0.00000000 Eh      0.00 kcal/mol
Vibrational entropy               ...      0.00001337 Eh      0.01 kcal/mol
Rotational entropy                ...      0.00617148 Eh      3.87 kcal/mol
Translational entropy             ...      0.01771079 Eh     11.11 kcal/mol
-----------------------------------------------------------------------
Final entropy term                ...      0.02389565 Eh     14.99 kcal/mol

In case the symmetry of your molecule has not been determined correctly
or in case you have a reason to use a different symmetry number we print
out the resulting rotational entropy values for sn=1,12 :
 --------------------------------------------------------
|  sn= 1 | S(rot)=      -0.02083711 Eh    -13.08 kcal/mol|
|  sn= 2 | S(rot)=      -0.02149156 Eh    -13.49 kcal/mol|
|  sn= 3 | S(rot)=      -0.02187440 Eh    -13.73 kcal/mol|
|  sn= 4 | S(rot)=      -0.02214602 Eh    -13.90 kcal/mol|
|  sn= 5 | S(rot)=      -0.02235671 Eh    -14.03 kcal/mol|
|  sn= 6 | S(rot)=      -0.02252885 Eh    -14.14 kcal/mol|
|  sn= 7 | S(rot)=      -0.02267440 Eh    -14.23 kcal/mol|
|  sn= 8 | S(rot)=      -0.02280048 Eh    -14.31 kcal/mol|
|  sn= 9 | S(rot)=      -0.02291169 Eh    -14.38 kcal/mol|
|  sn=10 | S(rot)=      -0.02301116 Eh    -14.44 kcal/mol|
|  sn=11 | S(rot)=      -0.02310115 Eh    -14.50 kcal/mol|
|  sn=12 | S(rot)=      -0.02318331 Eh    -14.55 kcal/mol|
 --------------------------------------------------------

-------------------
GIBBS FREE ENERGY
-------------------

The Gibbs free energy is G = H - T*S

Total enthalpy                    ...   -436.25814084 Eh
Total entropy correction          ...     -0.02389565 Eh    -14.99 kcal/mol
-----------------------------------------------------------------------
Final Gibbs free energy         ...   -436.28203649 Eh

For completeness - the Gibbs free energy minus the electronic energy
G-E(el)                           ...     -0.01763410 Eh    -11.07 kcal/mol

                             ****ORCA TERMINATED NORMALLY****
TOTAL RUN TIME: 0 days 0 hours 1 minutes 0 seconds 736 msec
