                         Program Version 4.2.0 -  RELEASE  -
|  1> #
|  2> # 15_H2CO tpssh/aug-cc-pvt(+d)z
|  3> #
|  4> ! tpssh d3bj aug-cc-pvt(+d)z def2/jk opt xyzfile numfreq
|  5>
|  6> *xyz 0 1
|  7> C           -0.008748659          0.001155597          0.000561564
|  8> O            1.179984630         -0.157249909         -0.074738871
|  9> H           -0.478730294          0.986582604         -0.186527529
| 10> H           -0.692514064         -0.830555519          0.260712785
| 11> *
| 12>
| 13> %pal
| 14> nprocs 24
| 15> end
| 16>
| 17>
| 18>                          ****END OF INPUT****
 Total Charge           Charge          ....    0
 Multiplicity           Mult            ....    1
 Number of Electrons    NEL             ....   16
Dispersion correction           -0.001167020
FINAL SINGLE POINT ENERGY      -114.551646755753
Dispersion correction            ... done
Dispersion correction           -0.001166961
FINAL SINGLE POINT ENERGY      -114.551657249785
Dispersion correction            ... done
Dispersion correction           -0.001166942
FINAL SINGLE POINT ENERGY      -114.551657312240
Dispersion correction            ... done
                    ***********************HURRAY********************

CARTESIAN COORDINATES (ANGSTROEM)
---------------------------------
  C     -0.007676    0.000885    0.000420
  O      1.183442   -0.157499   -0.074974
  H     -0.481106    0.984495   -0.185777
  H     -0.694668   -0.827949    0.260339

 Multiplicity           Mult            ....    1
 Number of Electrons    NEL             ....   16
 Basis Dimension        Dim             ....  138

ORBITAL ENERGIES
----------------

  NO   OCC          E(Eh)            E(eV)
   0   2.0000     -19.075540      -519.0718
   1   2.0000     -10.216117      -277.9947
   2   2.0000      -1.043357       -28.3912
   3   2.0000      -0.624510       -16.9938
   4   2.0000      -0.482670       -13.1341
   5   2.0000      -0.435688       -11.8557
   6   2.0000      -0.390735       -10.6324
   7   2.0000      -0.257989        -7.0202
   8   0.0000      -0.072469        -1.9720
   9   0.0000      -0.006254        -0.1702
  10   0.0000       0.020074         0.5462
  11   0.0000       0.034104         0.9280
  12   0.0000       0.050801         1.3824

MULLIKEN ATOMIC CHARGES
-----------------------
   0 C :   -0.096264
   1 O :   -0.408004
   2 H :    0.249365
   3 H :    0.254903
Sum of atomic charges:   -0.0000000

LOEWDIN ATOMIC CHARGES
----------------------
   0 C :    0.049511
   1 O :    0.423275
   2 H :   -0.235959
   3 H :   -0.236827

  Mayer bond orders larger than 0.100000
B(  0-C ,  1-O ) :   1.9080 B(  0-C ,  2-H ) :   0.8634 B(  0-C ,  3-H ) :   0.8487

Dispersion correction           -0.001166940
FINAL SINGLE POINT ENERGY      -114.551656920621

DIPOLE MOMENT
-------------
                                X             Y             Z
Electronic contribution:      1.28910      -0.17124      -0.08175
Nuclear contribution   :     -2.19765       0.29264       0.13934
                        -----------------------------------------
Total Dipole Moment    :     -0.90854       0.12140       0.05759
                        -----------------------------------------
Magnitude (a.u.)       :      0.91843
Magnitude (Debye)      :      2.33445

VIBRATIONAL FREQUENCIES
-----------------------

Scaling factor for frequencies =  1.000000000 (already applied!)

   0:         0.00 cm**-1
   1:         0.00 cm**-1
   2:         0.00 cm**-1
   3:         0.00 cm**-1
   4:         0.00 cm**-1
   5:         0.00 cm**-1
   6:      1195.29 cm**-1
   7:      1259.57 cm**-1
   8:      1533.23 cm**-1
   9:      1797.47 cm**-1
  10:      2880.40 cm**-1
  11:      2931.31 cm**-1

IR SPECTRUM
-----------

 Mode    freq (cm**-1)   T**2         TX         TY         TZ
-------------------------------------------------------------------
   6:      1195.29    6.107250  (  0.214005   0.441162   2.422154)
   7:      1259.57   11.286814  ( -0.455939  -3.244375   0.743615)
   8:      1533.23   11.806921  (  3.383903  -0.549004  -0.233919)
   9:      1797.47  107.051213  (-10.240097   1.340426   0.628405)
  10:      2880.40   75.011711  ( -8.570270   1.109210   0.576046)
  11:      2931.31  122.123310  (  1.007016  10.695408  -2.591810)

--------------------------
THERMOCHEMISTRY AT 298.15K
--------------------------

Temperature         ... 298.15 K
Pressure            ... 1.00 atm
Total Mass          ... 30.03 AMU

Throughout the following assumptions are being made:
  (1) The electronic state is orbitally nondegenerate
  (2) There are no thermally accessible electronically excited states
  (3) Hindered rotations indicated by low frequency modes are not
      treated as such but are treated as vibrations and this may
      cause some error
  (4) All equations used are the standard statistical mechanics
      equations for an ideal gas
  (5) All vibrations are strictly harmonic

freq.    1195.29  E(vib)   ...       0.01
freq.    1259.57  E(vib)   ...       0.01
freq.    1533.23  E(vib)   ...       0.00
freq.    1797.47  E(vib)   ...       0.00
freq.    2880.40  E(vib)   ...       0.00
freq.    2931.31  E(vib)   ...       0.00

------------
INNER ENERGY
------------

The inner energy is: U= E(el) + E(ZPE) + E(vib) + E(rot) + E(trans)
    E(el)   - is the total energy from the electronic structure calculation
              = E(kin-el) + E(nuc-el) + E(el-el) + E(nuc-nuc)
    E(ZPE)  - the the zero temperature vibrational energy from the frequency calculation
    E(vib)  - the the finite temperature correction to E(ZPE) due to population
              of excited vibrational states
    E(rot)  - is the rotational thermal energy
    E(trans)- is the translational thermal energy

Summary of contributions to the inner energy U:
Electronic energy                ...   -114.55165692 Eh
Zero point energy                ...      0.02642051 Eh      16.58 kcal/mol
Thermal vibrational correction   ...      0.00003597 Eh       0.02 kcal/mol
Thermal rotational correction    ...      0.00141627 Eh       0.89 kcal/mol
Thermal translational correction ...      0.00141627 Eh       0.89 kcal/mol
-----------------------------------------------------------------------
Total thermal energy                   -114.52236789 Eh

Summary of corrections to the electronic energy:
(perhaps to be used in another calculation)
Total thermal correction                  0.00286851 Eh       1.80 kcal/mol
Non-thermal (ZPE) correction              0.02642051 Eh      16.58 kcal/mol
-----------------------------------------------------------------------
Total correction                          0.02928902 Eh      18.38 kcal/mol

--------
ENTHALPY
--------

The enthalpy is H = U + kB*T
                kB is Boltzmann's constant
Total free energy                 ...   -114.52236789 Eh
Thermal Enthalpy correction       ...      0.00094421 Eh       0.59 kcal/mol
-----------------------------------------------------------------------
Total Enthalpy                    ...   -114.52142369 Eh

Note: Only C1 symmetry has been detected, increase convergence thresholds
      if your molecule has a higher symmetry. Symmetry factor of 1.0 is
      used for the rotational entropy correction.

Note: Rotational entropy computed according to Herzberg
Infrared and Raman Spectra, Chapter V,1, Van Nostrand Reinhold, 1945
Point Group:  C1, Symmetry Number:   1
Rotational constants in cm-1:     9.476400     1.296945     1.140812

Vibrational entropy computed according to the QRRHO of S. Grimme
Chem.Eur.J. 2012 18 9955

-------
ENTROPY
-------

The entropy contributions are T*S = T*(S(el)+S(vib)+S(rot)+S(trans))
     S(el)   - electronic entropy
     S(vib)  - vibrational entropy
     S(rot)  - rotational entropy
     S(trans)- translational entropy
The entropies will be listed as mutliplied by the temperature to get
units of energy

Electronic entropy                ...      0.00000000 Eh      0.00 kcal/mol
Vibrational entropy               ...      0.00004184 Eh      0.03 kcal/mol
Rotational entropy                ...      0.00826423 Eh      5.19 kcal/mol
Translational entropy             ...      0.01716732 Eh     10.77 kcal/mol
-----------------------------------------------------------------------
Final entropy term                ...      0.02547339 Eh     15.98 kcal/mol

In case the symmetry of your molecule has not been determined correctly
or in case you have a reason to use a different symmetry number we print
out the resulting rotational entropy values for sn=1,12 :
 --------------------------------------------------------
|  sn= 1 | S(rot)=       0.00826423 Eh      5.19 kcal/mol|
|  sn= 2 | S(rot)=       0.00760977 Eh      4.78 kcal/mol|
|  sn= 3 | S(rot)=       0.00722694 Eh      4.53 kcal/mol|
|  sn= 4 | S(rot)=       0.00695532 Eh      4.36 kcal/mol|
|  sn= 5 | S(rot)=       0.00674463 Eh      4.23 kcal/mol|
|  sn= 6 | S(rot)=       0.00657248 Eh      4.12 kcal/mol|
|  sn= 7 | S(rot)=       0.00642694 Eh      4.03 kcal/mol|
|  sn= 8 | S(rot)=       0.00630086 Eh      3.95 kcal/mol|
|  sn= 9 | S(rot)=       0.00618965 Eh      3.88 kcal/mol|
|  sn=10 | S(rot)=       0.00609017 Eh      3.82 kcal/mol|
|  sn=11 | S(rot)=       0.00600018 Eh      3.77 kcal/mol|
|  sn=12 | S(rot)=       0.00591803 Eh      3.71 kcal/mol|
 --------------------------------------------------------

-------------------
GIBBS FREE ENERGY
-------------------

The Gibbs free energy is G = H - T*S

Total enthalpy                    ...   -114.52142369 Eh
Total entropy correction          ...     -0.02547339 Eh    -15.98 kcal/mol
-----------------------------------------------------------------------
Final Gibbs free energy         ...   -114.54689707 Eh

For completeness - the Gibbs free energy minus the electronic energy
G-E(el)                           ...      0.00475984 Eh      2.99 kcal/mol

                             ****ORCA TERMINATED NORMALLY****
TOTAL RUN TIME: 0 days 0 hours 1 minutes 13 seconds 900 msec
