                         Program Version 4.2.0 -  RELEASE  -
|  1> #
|  2> # 16_H2CS tpssh/aug-cc-pvt(+d)z
|  3> #
|  4> ! tpssh d3bj aug-cc-pvt(+d)z def2/jk opt xyzfile numfreq
|  5>
|  6> *xyz 0 1
|  7> C           -0.111638623          0.008887387          0.001240584
|  8> S            1.485344299         -0.118821268         -0.016313713
|  9> H           -0.659438957          0.273908722          0.905432026
| 10> H           -0.714270859         -0.164037136         -0.890279494
| 11> *
| 12>
| 13> %pal
| 14> nprocs 24
| 15> end
| 16>
| 17>
| 18>                          ****END OF INPUT****
 Total Charge           Charge          ....    0
 Multiplicity           Mult            ....    1
 Number of Electrons    NEL             ....   24
Dispersion correction           -0.002132586
FINAL SINGLE POINT ENERGY      -437.519523440171
Dispersion correction            ... done
Dispersion correction           -0.002132213
FINAL SINGLE POINT ENERGY      -437.519546790482
Dispersion correction            ... done
Dispersion correction           -0.002131941
FINAL SINGLE POINT ENERGY      -437.519551373642
Dispersion correction            ... done
                    ***********************HURRAY********************

CARTESIAN COORDINATES (ANGSTROEM)
---------------------------------
  C     -0.111531    0.008886    0.001282
  S      1.490728   -0.119253   -0.016383
  H     -0.662245    0.273628    0.903408
  H     -0.716956   -0.163323   -0.888227

 Multiplicity           Mult            ....    1
 Number of Electrons    NEL             ....   24
 Basis Dimension        Dim             ....  147

ORBITAL ENERGIES
----------------

  NO   OCC          E(Eh)            E(eV)
   0   2.0000     -88.745547     -2414.8891
   1   2.0000     -10.191514      -277.3252
   2   2.0000      -7.870309      -214.1620
   3   2.0000      -5.822187      -158.4298
   4   2.0000      -5.819782      -158.3643
   5   2.0000      -5.811370      -158.1354
   6   2.0000      -0.782253       -21.2862
   7   2.0000      -0.589937       -16.0530
   8   2.0000      -0.453448       -12.3389
   9   2.0000      -0.385395       -10.4871
  10   2.0000      -0.315478        -8.5846
  11   2.0000      -0.224401        -6.1063
  12   0.0000      -0.113669        -3.0931
  13   0.0000      -0.007832        -0.2131
  14   0.0000       0.018717         0.5093
  15   0.0000       0.020843         0.5672
  16   0.0000       0.045701         1.2436

MULLIKEN ATOMIC CHARGES
-----------------------
   0 C :   -0.467203
   1 S :   -0.060030
   2 H :    0.257290
   3 H :    0.269944
Sum of atomic charges:    0.0000000

LOEWDIN ATOMIC CHARGES
----------------------
   0 C :   -0.231491
   1 S :    0.883940
   2 H :   -0.326227
   3 H :   -0.326222

  Mayer bond orders larger than 0.100000
B(  0-C ,  1-S ) :   1.8274 B(  0-C ,  2-H ) :   0.8451 B(  0-C ,  3-H ) :   0.8371

Dispersion correction           -0.002131930
FINAL SINGLE POINT ENERGY      -437.519551418246

DIPOLE MOMENT
-------------
                                X             Y             Z
Electronic contribution:      2.44505      -0.19563      -0.02598
Nuclear contribution   :     -3.14344       0.25146       0.03454
                        -----------------------------------------
Total Dipole Moment    :     -0.69839       0.05583       0.00856
                        -----------------------------------------
Magnitude (a.u.)       :      0.70067
Magnitude (Debye)      :      1.78096

VIBRATIONAL FREQUENCIES
-----------------------

Scaling factor for frequencies =  1.000000000 (already applied!)

   0:         0.00 cm**-1
   1:         0.00 cm**-1
   2:         0.00 cm**-1
   3:         0.00 cm**-1
   4:         0.00 cm**-1
   5:         0.00 cm**-1
   6:      1002.34 cm**-1
   7:      1032.73 cm**-1
   8:      1089.52 cm**-1
   9:      1501.53 cm**-1
  10:      3051.73 cm**-1
  11:      3129.39 cm**-1

IR SPECTRUM
-----------

 Mode    freq (cm**-1)   T**2         TX         TY         TZ
-------------------------------------------------------------------
   6:      1002.34    2.954975  (  0.057170   0.445710   1.659231)
   7:      1032.73   38.886374  (  0.484017   6.019173  -1.556166)
   8:      1089.52   14.150899  ( -3.749835   0.296924   0.038407)
   9:      1501.53    5.248331  ( -2.283021   0.188023   0.028144)
  10:      3051.73   37.473764  ( -6.102796   0.471518   0.085563)
  11:      3129.39    4.646478  ( -0.015630   0.551858   2.083672)

--------------------------
THERMOCHEMISTRY AT 298.15K
--------------------------

Temperature         ... 298.15 K
Pressure            ... 1.00 atm
Total Mass          ... 46.09 AMU

Throughout the following assumptions are being made:
  (1) The electronic state is orbitally nondegenerate
  (2) There are no thermally accessible electronically excited states
  (3) Hindered rotations indicated by low frequency modes are not
      treated as such but are treated as vibrations and this may
      cause some error
  (4) All equations used are the standard statistical mechanics
      equations for an ideal gas
  (5) All vibrations are strictly harmonic

freq.    1002.34  E(vib)   ...       0.02
freq.    1032.73  E(vib)   ...       0.02
freq.    1089.52  E(vib)   ...       0.02
freq.    1501.53  E(vib)   ...       0.00
freq.    3051.73  E(vib)   ...       0.00
freq.    3129.39  E(vib)   ...       0.00

------------
INNER ENERGY
------------

The inner energy is: U= E(el) + E(ZPE) + E(vib) + E(rot) + E(trans)
    E(el)   - is the total energy from the electronic structure calculation
              = E(kin-el) + E(nuc-el) + E(el-el) + E(nuc-nuc)
    E(ZPE)  - the the zero temperature vibrational energy from the frequency calculation
    E(vib)  - the the finite temperature correction to E(ZPE) due to population
              of excited vibrational states
    E(rot)  - is the rotational thermal energy
    E(trans)- is the translational thermal energy

Summary of contributions to the inner energy U:
Electronic energy                ...   -437.51955142 Eh
Zero point energy                ...      0.02462068 Eh      15.45 kcal/mol
Thermal vibrational correction   ...      0.00009985 Eh       0.06 kcal/mol
Thermal rotational correction    ...      0.00141627 Eh       0.89 kcal/mol
Thermal translational correction ...      0.00141627 Eh       0.89 kcal/mol
-----------------------------------------------------------------------
Total thermal energy                   -437.49199834 Eh

Summary of corrections to the electronic energy:
(perhaps to be used in another calculation)
Total thermal correction                  0.00293240 Eh       1.84 kcal/mol
Non-thermal (ZPE) correction              0.02462068 Eh      15.45 kcal/mol
-----------------------------------------------------------------------
Total correction                          0.02755308 Eh      17.29 kcal/mol

--------
ENTHALPY
--------

The enthalpy is H = U + kB*T
                kB is Boltzmann's constant
Total free energy                 ...   -437.49199834 Eh
Thermal Enthalpy correction       ...      0.00094421 Eh       0.59 kcal/mol
-----------------------------------------------------------------------
Total Enthalpy                    ...   -437.49105413 Eh

Note: Only C1 symmetry has been detected, increase convergence thresholds
      if your molecule has a higher symmetry. Symmetry factor of 1.0 is
      used for the rotational entropy correction.

Note: Rotational entropy computed according to Herzberg
Infrared and Raman Spectra, Chapter V,1, Van Nostrand Reinhold, 1945
Point Group:  C1, Symmetry Number:   1
Rotational constants in cm-1:     9.826360     0.591975     0.558339

Vibrational entropy computed according to the QRRHO of S. Grimme
Chem.Eur.J. 2012 18 9955

-------
ENTROPY
-------

The entropy contributions are T*S = T*(S(el)+S(vib)+S(rot)+S(trans))
     S(el)   - electronic entropy
     S(vib)  - vibrational entropy
     S(rot)  - rotational entropy
     S(trans)- translational entropy
The entropies will be listed as mutliplied by the temperature to get
units of energy

Electronic entropy                ...      0.00000000 Eh      0.00 kcal/mol
Vibrational entropy               ...      0.00011952 Eh      0.07 kcal/mol
Rotational entropy                ...      0.00895469 Eh      5.62 kcal/mol
Translational entropy             ...      0.01777414 Eh     11.15 kcal/mol
-----------------------------------------------------------------------
Final entropy term                ...      0.02684836 Eh     16.85 kcal/mol

In case the symmetry of your molecule has not been determined correctly
or in case you have a reason to use a different symmetry number we print
out the resulting rotational entropy values for sn=1,12 :
 --------------------------------------------------------
|  sn= 1 | S(rot)=       0.00895469 Eh      5.62 kcal/mol|
|  sn= 2 | S(rot)=       0.00830024 Eh      5.21 kcal/mol|
|  sn= 3 | S(rot)=       0.00791740 Eh      4.97 kcal/mol|
|  sn= 4 | S(rot)=       0.00764578 Eh      4.80 kcal/mol|
|  sn= 5 | S(rot)=       0.00743509 Eh      4.67 kcal/mol|
|  sn= 6 | S(rot)=       0.00726295 Eh      4.56 kcal/mol|
|  sn= 7 | S(rot)=       0.00711740 Eh      4.47 kcal/mol|
|  sn= 8 | S(rot)=       0.00699132 Eh      4.39 kcal/mol|
|  sn= 9 | S(rot)=       0.00688012 Eh      4.32 kcal/mol|
|  sn=10 | S(rot)=       0.00678064 Eh      4.25 kcal/mol|
|  sn=11 | S(rot)=       0.00669065 Eh      4.20 kcal/mol|
|  sn=12 | S(rot)=       0.00660849 Eh      4.15 kcal/mol|
 --------------------------------------------------------

-------------------
GIBBS FREE ENERGY
-------------------

The Gibbs free energy is G = H - T*S

Total enthalpy                    ...   -437.49105413 Eh
Total entropy correction          ...     -0.02684836 Eh    -16.85 kcal/mol
-----------------------------------------------------------------------
Final Gibbs free energy         ...   -437.51790249 Eh

For completeness - the Gibbs free energy minus the electronic energy
G-E(el)                           ...      0.00164893 Eh      1.03 kcal/mol

                             ****ORCA TERMINATED NORMALLY****
TOTAL RUN TIME: 0 days 0 hours 2 minutes 1 seconds 537 msec
