                         Program Version 4.2.0 -  RELEASE  -
|  1> #
|  2> # 17_H2O tpssh/aug-cc-pvt(+d)z
|  3> #
|  4> ! tpssh d3bj aug-cc-pvt(+d)z def2/jk opt xyzfile numfreq
|  5>
|  6> *xyz 0 1
|  7> O            0.004834854          0.003524701         -0.002982157
|  8> H            0.274272539          0.890632971          0.255471383
|  9> H            0.605092602         -0.239557672         -0.714989224
| 10> *
| 11>
| 12> %pal
| 13> nprocs 24
| 14> end
| 15>
| 16>
| 17>                          ****END OF INPUT****
 Total Charge           Charge          ....    0
 Multiplicity           Mult            ....    1
 Number of Electrons    NEL             ....   10
Dispersion correction           -0.000368582
FINAL SINGLE POINT ENERGY       -76.458538037005
Dispersion correction            ... done
Dispersion correction           -0.000368590
FINAL SINGLE POINT ENERGY       -76.458543265532
Dispersion correction            ... done
Dispersion correction           -0.000368595
FINAL SINGLE POINT ENERGY       -76.458543167250
Dispersion correction            ... done
                    ***********************HURRAY********************

CARTESIAN COORDINATES (ANGSTROEM)
---------------------------------
  O      0.002801    0.002026   -0.001917
  H      0.275501    0.890648    0.254312
  H      0.605897   -0.238075   -0.714894

 Multiplicity           Mult            ....    1
 Number of Electrons    NEL             ....   10
 Basis Dimension        Dim             ....   92

ORBITAL ENERGIES
----------------

  NO   OCC          E(Eh)            E(eV)
   0   2.0000     -19.060077      -518.6511
   1   2.0000      -0.993787       -27.0423
   2   2.0000      -0.513092       -13.9619
   3   2.0000      -0.373551       -10.1648
   4   2.0000      -0.295499        -8.0409
   5   0.0000      -0.020844        -0.5672
   6   0.0000       0.023420         0.6373
   7   0.0000       0.079862         2.1731
   8   0.0000       0.099126         2.6974
   9   0.0000       0.106378         2.8947

MULLIKEN ATOMIC CHARGES
-----------------------
   0 O :   -0.331666
   1 H :    0.167377
   2 H :    0.164289
Sum of atomic charges:   -0.0000000

LOEWDIN ATOMIC CHARGES
----------------------
   0 O :    1.026483
   1 H :   -0.512991
   2 H :   -0.513492

  Mayer bond orders larger than 0.100000
B(  0-O ,  1-H ) :   1.0108 B(  0-O ,  2-H ) :   1.0278

Dispersion correction           -0.000368597
FINAL SINGLE POINT ENERGY       -76.458542820306

DIPOLE MOMENT
-------------
                                X             Y             Z
Electronic contribution:     -0.19503      -0.14135       0.09986
Nuclear contribution   :      0.72898       0.53980      -0.38018
                        -----------------------------------------
Total Dipole Moment    :      0.53395       0.39846      -0.28032
                        -----------------------------------------
Magnitude (a.u.)       :      0.72281
Magnitude (Debye)      :      1.83723

VIBRATIONAL FREQUENCIES
-----------------------

Scaling factor for frequencies =  1.000000000 (already applied!)

   0:         0.00 cm**-1
   1:         0.00 cm**-1
   2:         0.00 cm**-1
   3:         0.00 cm**-1
   4:         0.00 cm**-1
   5:         0.00 cm**-1
   6:      1644.47 cm**-1
   7:      3764.04 cm**-1
   8:      3869.06 cm**-1

IR SPECTRUM
-----------

 Mode    freq (cm**-1)   T**2         TX         TY         TZ
-------------------------------------------------------------------
   6:      1644.47   68.112546  ( -6.144023  -4.525473   3.143822)
   7:      3764.04    2.518065  ( -1.199274  -0.843674   0.606647)
   8:      3869.06   49.184646  (  1.572275  -5.120226  -4.527238)

--------------------------
THERMOCHEMISTRY AT 298.15K
--------------------------

Temperature         ... 298.15 K
Pressure            ... 1.00 atm
Total Mass          ... 18.02 AMU

Throughout the following assumptions are being made:
  (1) The electronic state is orbitally nondegenerate
  (2) There are no thermally accessible electronically excited states
  (3) Hindered rotations indicated by low frequency modes are not
      treated as such but are treated as vibrations and this may
      cause some error
  (4) All equations used are the standard statistical mechanics
      equations for an ideal gas
  (5) All vibrations are strictly harmonic

freq.    1644.47  E(vib)   ...       0.00
freq.    3764.04  E(vib)   ...       0.00
freq.    3869.06  E(vib)   ...       0.00

------------
INNER ENERGY
------------

The inner energy is: U= E(el) + E(ZPE) + E(vib) + E(rot) + E(trans)
    E(el)   - is the total energy from the electronic structure calculation
              = E(kin-el) + E(nuc-el) + E(el-el) + E(nuc-nuc)
    E(ZPE)  - the the zero temperature vibrational energy from the frequency calculation
    E(vib)  - the the finite temperature correction to E(ZPE) due to population
              of excited vibrational states
    E(rot)  - is the rotational thermal energy
    E(trans)- is the translational thermal energy

Summary of contributions to the inner energy U:
Electronic energy                ...    -76.45854282 Eh
Zero point energy                ...      0.02113588 Eh      13.26 kcal/mol
Thermal vibrational correction   ...      0.00000268 Eh       0.00 kcal/mol
Thermal rotational correction    ...      0.00141627 Eh       0.89 kcal/mol
Thermal translational correction ...      0.00141627 Eh       0.89 kcal/mol
-----------------------------------------------------------------------
Total thermal energy                    -76.43457172 Eh

Summary of corrections to the electronic energy:
(perhaps to be used in another calculation)
Total thermal correction                  0.00283523 Eh       1.78 kcal/mol
Non-thermal (ZPE) correction              0.02113588 Eh      13.26 kcal/mol
-----------------------------------------------------------------------
Total correction                          0.02397110 Eh      15.04 kcal/mol

--------
ENTHALPY
--------

The enthalpy is H = U + kB*T
                kB is Boltzmann's constant
Total free energy                 ...    -76.43457172 Eh
Thermal Enthalpy correction       ...      0.00094421 Eh       0.59 kcal/mol
-----------------------------------------------------------------------
Total Enthalpy                    ...    -76.43362751 Eh

Note: Rotational entropy computed according to Herzberg
Infrared and Raman Spectra, Chapter V,1, Van Nostrand Reinhold, 1945
Point Group:  Cs, Symmetry Number:   1
Rotational constants in cm-1:    26.974583    14.401366     9.388808

Vibrational entropy computed according to the QRRHO of S. Grimme
Chem.Eur.J. 2012 18 9955

-------
ENTROPY
-------

The entropy contributions are T*S = T*(S(el)+S(vib)+S(rot)+S(trans))
     S(el)   - electronic entropy
     S(vib)  - vibrational entropy
     S(rot)  - rotational entropy
     S(trans)- translational entropy
The entropies will be listed as mutliplied by the temperature to get
units of energy

Electronic entropy                ...      0.00000000 Eh      0.00 kcal/mol
Vibrational entropy               ...      0.00000302 Eh      0.00 kcal/mol
Rotational entropy                ...      0.00563885 Eh      3.54 kcal/mol
Translational entropy             ...      0.01644380 Eh     10.32 kcal/mol
-----------------------------------------------------------------------
Final entropy term                ...      0.02208567 Eh     13.86 kcal/mol

In case the symmetry of your molecule has not been determined correctly
or in case you have a reason to use a different symmetry number we print
out the resulting rotational entropy values for sn=1,12 :
 --------------------------------------------------------
|  sn= 1 | S(rot)=       0.00563885 Eh      3.54 kcal/mol|
|  sn= 2 | S(rot)=       0.00498439 Eh      3.13 kcal/mol|
|  sn= 3 | S(rot)=       0.00460156 Eh      2.89 kcal/mol|
|  sn= 4 | S(rot)=       0.00432994 Eh      2.72 kcal/mol|
|  sn= 5 | S(rot)=       0.00411925 Eh      2.58 kcal/mol|
|  sn= 6 | S(rot)=       0.00394710 Eh      2.48 kcal/mol|
|  sn= 7 | S(rot)=       0.00380156 Eh      2.39 kcal/mol|
|  sn= 8 | S(rot)=       0.00367548 Eh      2.31 kcal/mol|
|  sn= 9 | S(rot)=       0.00356427 Eh      2.24 kcal/mol|
|  sn=10 | S(rot)=       0.00346479 Eh      2.17 kcal/mol|
|  sn=11 | S(rot)=       0.00337480 Eh      2.12 kcal/mol|
|  sn=12 | S(rot)=       0.00329265 Eh      2.07 kcal/mol|
 --------------------------------------------------------

-------------------
GIBBS FREE ENERGY
-------------------

The Gibbs free energy is G = H - T*S

Total enthalpy                    ...    -76.43362751 Eh
Total entropy correction          ...     -0.02208567 Eh    -13.86 kcal/mol
-----------------------------------------------------------------------
Final Gibbs free energy         ...    -76.45571318 Eh

For completeness - the Gibbs free energy minus the electronic energy
G-E(el)                           ...      0.00282964 Eh      1.78 kcal/mol

                             ****ORCA TERMINATED NORMALLY****
TOTAL RUN TIME: 0 days 0 hours 0 minutes 28 seconds 896 msec
