                         Program Version 4.2.0 -  RELEASE  -
|  1> #
|  2> # 18_H2S tpssh/aug-cc-pvt(+d)z
|  3> #
|  4> ! tpssh d3bj aug-cc-pvt(+d)z def2/jk opt xyzfile numfreq
|  5>
|  6> *xyz 0 1
|  7> S           -0.001470633          0.617319337         -0.000000023
|  8> H            0.970605688         -0.306349104         -0.000000002
|  9> H           -0.969135055         -0.310970228          0.000000025
| 10> *
| 11>
| 12> %pal
| 13> nprocs 24
| 14> end
| 15>
| 16>
| 17>                          ****END OF INPUT****
 Total Charge           Charge          ....    0
 Multiplicity           Mult            ....    1
 Number of Electrons    NEL             ....   18
Dispersion correction           -0.000877486
FINAL SINGLE POINT ENERGY      -399.432668581218
Dispersion correction            ... done
Dispersion correction           -0.000877510
FINAL SINGLE POINT ENERGY      -399.432670639443
Dispersion correction            ... done
Dispersion correction           -0.000877534
FINAL SINGLE POINT ENERGY      -399.432670346068
Dispersion correction            ... done
                    ***********************HURRAY********************

CARTESIAN COORDINATES (ANGSTROEM)
---------------------------------
  S     -0.001475    0.619913   -0.000000
  H      0.967768   -0.307652   -0.000000
  H     -0.966293   -0.312261    0.000000

 Multiplicity           Mult            ....    1
 Number of Electrons    NEL             ....   18
 Basis Dimension        Dim             ....  101

ORBITAL ENERGIES
----------------

  NO   OCC          E(Eh)            E(eV)
   0   2.0000     -88.752726     -2415.0844
   1   2.0000      -7.877897      -214.3685
   2   2.0000      -5.829736      -158.6352
   3   2.0000      -5.826392      -158.5442
   4   2.0000      -5.819784      -158.3644
   5   2.0000      -0.724745       -19.7213
   6   2.0000      -0.433895       -11.8069
   7   2.0000      -0.358453        -9.7540
   8   2.0000      -0.253058        -6.8861
   9   0.0000      -0.017841        -0.4855
  10   0.0000      -0.002661        -0.0724
  11   0.0000       0.027755         0.7553
  12   0.0000       0.048891         1.3304
  13   0.0000       0.053648         1.4598

MULLIKEN ATOMIC CHARGES
-----------------------
   0 S :   -0.169960
   1 H :    0.084756
   2 H :    0.085204
Sum of atomic charges:   -0.0000000

LOEWDIN ATOMIC CHARGES
----------------------
   0 S :    1.309230
   1 H :   -0.654618
   2 H :   -0.654613

  Mayer bond orders larger than 0.100000
B(  0-S ,  1-H ) :   1.0330 B(  0-S ,  2-H ) :   1.0328

Dispersion correction           -0.000877534
FINAL SINGLE POINT ENERGY      -399.432670354584

DIPOLE MOMENT
-------------
                                X             Y             Z
Electronic contribution:     -0.00297       1.25225      -0.00000
Nuclear contribution   :      0.00391      -1.64313       0.00000
                        -----------------------------------------
Total Dipole Moment    :      0.00093      -0.39088       0.00000
                        -----------------------------------------
Magnitude (a.u.)       :      0.39088
Magnitude (Debye)      :      0.99354

VIBRATIONAL FREQUENCIES
-----------------------

Scaling factor for frequencies =  1.000000000 (already applied!)

   0:         0.00 cm**-1
   1:         0.00 cm**-1
   2:         0.00 cm**-1
   3:         0.00 cm**-1
   4:         0.00 cm**-1
   5:         0.00 cm**-1
   6:      1214.60 cm**-1
   7:      2699.24 cm**-1
   8:      2709.28 cm**-1

IR SPECTRUM
-----------

 Mode    freq (cm**-1)   T**2         TX         TY         TZ
-------------------------------------------------------------------
   6:      1214.60    0.494711  ( -0.000320   0.703357  -0.000001)
   7:      2699.24    0.123860  ( -0.000985   0.351937  -0.000001)
   8:      2709.28    0.000570  (  0.023879  -0.000537   0.000001)

--------------------------
THERMOCHEMISTRY AT 298.15K
--------------------------

Temperature         ... 298.15 K
Pressure            ... 1.00 atm
Total Mass          ... 34.08 AMU

Throughout the following assumptions are being made:
  (1) The electronic state is orbitally nondegenerate
  (2) There are no thermally accessible electronically excited states
  (3) Hindered rotations indicated by low frequency modes are not
      treated as such but are treated as vibrations and this may
      cause some error
  (4) All equations used are the standard statistical mechanics
      equations for an ideal gas
  (5) All vibrations are strictly harmonic

freq.    1214.60  E(vib)   ...       0.01
freq.    2699.24  E(vib)   ...       0.00
freq.    2709.28  E(vib)   ...       0.00

------------
INNER ENERGY
------------

The inner energy is: U= E(el) + E(ZPE) + E(vib) + E(rot) + E(trans)
    E(el)   - is the total energy from the electronic structure calculation
              = E(kin-el) + E(nuc-el) + E(el-el) + E(nuc-nuc)
    E(ZPE)  - the the zero temperature vibrational energy from the frequency calculation
    E(vib)  - the the finite temperature correction to E(ZPE) due to population
              of excited vibrational states
    E(rot)  - is the rotational thermal energy
    E(trans)- is the translational thermal energy

Summary of contributions to the inner energy U:
Electronic energy                ...   -399.43267035 Eh
Zero point energy                ...      0.01508857 Eh       9.47 kcal/mol
Thermal vibrational correction   ...      0.00001586 Eh       0.01 kcal/mol
Thermal rotational correction    ...      0.00141627 Eh       0.89 kcal/mol
Thermal translational correction ...      0.00141627 Eh       0.89 kcal/mol
-----------------------------------------------------------------------
Total thermal energy                   -399.41473338 Eh

Summary of corrections to the electronic energy:
(perhaps to be used in another calculation)
Total thermal correction                  0.00284840 Eh       1.79 kcal/mol
Non-thermal (ZPE) correction              0.01508857 Eh       9.47 kcal/mol
-----------------------------------------------------------------------
Total correction                          0.01793698 Eh      11.26 kcal/mol

--------
ENTHALPY
--------

The enthalpy is H = U + kB*T
                kB is Boltzmann's constant
Total free energy                 ...   -399.41473338 Eh
Thermal Enthalpy correction       ...      0.00094421 Eh       0.59 kcal/mol
-----------------------------------------------------------------------
Total Enthalpy                    ...   -399.41378917 Eh

Note: Rotational entropy computed according to Herzberg
Infrared and Raman Spectra, Chapter V,1, Van Nostrand Reinhold, 1945
Point Group:  Cs, Symmetry Number:   1
Rotational constants in cm-1:    10.278863     8.941776     4.781906

Vibrational entropy computed according to the QRRHO of S. Grimme
Chem.Eur.J. 2012 18 9955

-------
ENTROPY
-------

The entropy contributions are T*S = T*(S(el)+S(vib)+S(rot)+S(trans))
     S(el)   - electronic entropy
     S(vib)  - vibrational entropy
     S(rot)  - rotational entropy
     S(trans)- translational entropy
The entropies will be listed as mutliplied by the temperature to get
units of energy

Electronic entropy                ...      0.00000000 Eh      0.00 kcal/mol
Vibrational entropy               ...      0.00001856 Eh      0.01 kcal/mol
Rotational entropy                ...      0.00663783 Eh      4.17 kcal/mol
Translational entropy             ...      0.01734652 Eh     10.89 kcal/mol
-----------------------------------------------------------------------
Final entropy term                ...      0.02400291 Eh     15.06 kcal/mol

In case the symmetry of your molecule has not been determined correctly
or in case you have a reason to use a different symmetry number we print
out the resulting rotational entropy values for sn=1,12 :
 --------------------------------------------------------
|  sn= 1 | S(rot)=       0.00663783 Eh      4.17 kcal/mol|
|  sn= 2 | S(rot)=       0.00598337 Eh      3.75 kcal/mol|
|  sn= 3 | S(rot)=       0.00560054 Eh      3.51 kcal/mol|
|  sn= 4 | S(rot)=       0.00532891 Eh      3.34 kcal/mol|
|  sn= 5 | S(rot)=       0.00511823 Eh      3.21 kcal/mol|
|  sn= 6 | S(rot)=       0.00494608 Eh      3.10 kcal/mol|
|  sn= 7 | S(rot)=       0.00480054 Eh      3.01 kcal/mol|
|  sn= 8 | S(rot)=       0.00467446 Eh      2.93 kcal/mol|
|  sn= 9 | S(rot)=       0.00456325 Eh      2.86 kcal/mol|
|  sn=10 | S(rot)=       0.00446377 Eh      2.80 kcal/mol|
|  sn=11 | S(rot)=       0.00437378 Eh      2.74 kcal/mol|
|  sn=12 | S(rot)=       0.00429163 Eh      2.69 kcal/mol|
 --------------------------------------------------------

-------------------
GIBBS FREE ENERGY
-------------------

The Gibbs free energy is G = H - T*S

Total enthalpy                    ...   -399.41378917 Eh
Total entropy correction          ...     -0.02400291 Eh    -15.06 kcal/mol
-----------------------------------------------------------------------
Final Gibbs free energy         ...   -399.43779208 Eh

For completeness - the Gibbs free energy minus the electronic energy
G-E(el)                           ...     -0.00512172 Eh     -3.21 kcal/mol

                             ****ORCA TERMINATED NORMALLY****
TOTAL RUN TIME: 0 days 0 hours 0 minutes 48 seconds 196 msec
