                         Program Version 4.2.0 -  RELEASE  -
|  1> #
|  2> # 19_HCl tpssh/aug-cc-pvt(+d)z
|  3> #
|  4> ! tpssh d3bj aug-cc-pvt(+d)z def2/jk opt xyzfile numfreq
|  5>
|  6> *xyz 0 1
|  7> Cl           0.640695451         -0.000000005          0.000000019
|  8> H           -0.640695451          0.000000005         -0.000000019
|  9> *
| 10>
| 11> %pal
| 12> nprocs 24
| 13> end
| 14>
| 15>
| 16>                          ****END OF INPUT****
 Total Charge           Charge          ....    0
 Multiplicity           Mult            ....    1
 Number of Electrons    NEL             ....   18
Dispersion correction           -0.000351779
FINAL SINGLE POINT ENERGY      -460.843080454043
Dispersion correction            ... done
Dispersion correction           -0.000351779
FINAL SINGLE POINT ENERGY      -460.843080920668
Dispersion correction            ... done
                    ***********************HURRAY********************

CARTESIAN COORDINATES (ANGSTROEM)
---------------------------------
  Cl     0.640374   -0.000000    0.000000
  H     -0.640374    0.000000   -0.000000

 Multiplicity           Mult            ....    1
 Number of Electrons    NEL             ....   18
 Basis Dimension        Dim             ....   78

ORBITAL ENERGIES
----------------

  NO   OCC          E(Eh)            E(eV)
   0   2.0000    -101.414140     -2759.6191
   1   2.0000      -9.395557      -255.6661
   2   2.0000      -7.145105      -194.4282
   3   2.0000      -7.135766      -194.1741
   4   2.0000      -7.135766      -194.1741
   5   2.0000      -0.825660       -22.4673
   6   2.0000      -0.460893       -12.5415
   7   2.0000      -0.320462        -8.7202
   8   2.0000      -0.320462        -8.7202
   9   0.0000      -0.025041        -0.6814
  10   0.0000       0.037250         1.0136
  11   0.0000       0.058497         1.5918
  12   0.0000       0.064515         1.7555
  13   0.0000       0.064515         1.7555

MULLIKEN ATOMIC CHARGES
-----------------------
   0 Cl:   -0.108641
   1 H :    0.108641
Sum of atomic charges:   -0.0000000

LOEWDIN ATOMIC CHARGES
----------------------
   0 Cl:    0.920049
   1 H :   -0.920049

  Mayer bond orders larger than 0.100000
B(  0-Cl,  1-H ) :   1.1145

Dispersion correction           -0.000351779
FINAL SINGLE POINT ENERGY      -460.843080982247

DIPOLE MOMENT
-------------
                                X             Y             Z
Electronic contribution:      0.78300      -0.00000       0.00000
Nuclear contribution   :     -1.21587       0.00000      -0.00000
                        -----------------------------------------
Total Dipole Moment    :     -0.43287       0.00000      -0.00000
                        -----------------------------------------
Magnitude (a.u.)       :      0.43287
Magnitude (Debye)      :      1.10027

VIBRATIONAL FREQUENCIES
-----------------------

Scaling factor for frequencies =  1.000000000 (already applied!)

   0:         0.00 cm**-1
   1:         0.00 cm**-1
   2:         0.00 cm**-1
   3:         0.00 cm**-1
   4:         0.00 cm**-1
   5:      2955.52 cm**-1

IR SPECTRUM
-----------

 Mode    freq (cm**-1)   T**2         TX         TY         TZ
-------------------------------------------------------------------
   5:      2955.52   42.645715  ( -6.530369   0.000002   0.000002)

--------------------------
THERMOCHEMISTRY AT 298.15K
--------------------------

Temperature         ... 298.15 K
Pressure            ... 1.00 atm
Total Mass          ... 36.46 AMU
The molecule is recognized as being linear

Throughout the following assumptions are being made:
  (1) The electronic state is orbitally nondegenerate
  (2) There are no thermally accessible electronically excited states
  (3) Hindered rotations indicated by low frequency modes are not
      treated as such but are treated as vibrations and this may
      cause some error
  (4) All equations used are the standard statistical mechanics
      equations for an ideal gas
  (5) All vibrations are strictly harmonic

freq.    2955.52  E(vib)   ...       0.00

------------
INNER ENERGY
------------

The inner energy is: U= E(el) + E(ZPE) + E(vib) + E(rot) + E(trans)
    E(el)   - is the total energy from the electronic structure calculation
              = E(kin-el) + E(nuc-el) + E(el-el) + E(nuc-nuc)
    E(ZPE)  - the the zero temperature vibrational energy from the frequency calculation
    E(vib)  - the the finite temperature correction to E(ZPE) due to population
              of excited vibrational states
    E(rot)  - is the rotational thermal energy
    E(trans)- is the translational thermal energy

Summary of contributions to the inner energy U:
Electronic energy                ...   -460.84308099 Eh
Zero point energy                ...      0.00673317 Eh       4.23 kcal/mol
Thermal vibrational correction   ...      0.00000001 Eh       0.00 kcal/mol
Thermal rotational correction    ...      0.00094418 Eh       0.59 kcal/mol
Thermal translational correction ...      0.00141627 Eh       0.89 kcal/mol
-----------------------------------------------------------------------
Total thermal energy                   -460.83398736 Eh

Summary of corrections to the electronic energy:
(perhaps to be used in another calculation)
Total thermal correction                  0.00236046 Eh       1.48 kcal/mol
Non-thermal (ZPE) correction              0.00673317 Eh       4.23 kcal/mol
-----------------------------------------------------------------------
Total correction                          0.00909363 Eh       5.71 kcal/mol

--------
ENTHALPY
--------

The enthalpy is H = U + kB*T
                kB is Boltzmann's constant
Total free energy                 ...   -460.83398736 Eh
Thermal Enthalpy correction       ...      0.00094421 Eh       0.59 kcal/mol
-----------------------------------------------------------------------
Total Enthalpy                    ...   -460.83304315 Eh

Note: Rotational entropy computed according to Herzberg
Infrared and Raman Spectra, Chapter V,1, Van Nostrand Reinhold, 1945
Point Group:  Cinfv, Symmetry Number:   1
Rotational constants in cm-1:     0.000000    10.485400    10.485400

Vibrational entropy computed according to the QRRHO of S. Grimme
Chem.Eur.J. 2012 18 9955

-------
ENTROPY
-------

The entropy contributions are T*S = T*(S(el)+S(vib)+S(rot)+S(trans))
     S(el)   - electronic entropy
     S(vib)  - vibrational entropy
     S(rot)  - rotational entropy
     S(trans)- translational entropy
The entropies will be listed as mutliplied by the temperature to get
units of energy

Electronic entropy                ...      0.00000000 Eh      0.00 kcal/mol
Vibrational entropy               ...      0.00000001 Eh      0.00 kcal/mol
Rotational entropy                ...      0.00376145 Eh      2.36 kcal/mol
Translational entropy             ...      0.01744233 Eh     10.95 kcal/mol
-----------------------------------------------------------------------
Final entropy term                ...      0.02120379 Eh     13.31 kcal/mol

In case the symmetry of your molecule has not been determined correctly
or in case you have a reason to use a different symmetry number we print
out the resulting rotational entropy values for sn=1,12 :
 --------------------------------------------------------
|  sn= 1 | S(rot)=      -0.01089853 Eh     -6.84 kcal/mol|
|  sn= 2 | S(rot)=      -0.01155299 Eh     -7.25 kcal/mol|
|  sn= 3 | S(rot)=      -0.01193582 Eh     -7.49 kcal/mol|
|  sn= 4 | S(rot)=      -0.01220745 Eh     -7.66 kcal/mol|
|  sn= 5 | S(rot)=      -0.01241814 Eh     -7.79 kcal/mol|
|  sn= 6 | S(rot)=      -0.01259028 Eh     -7.90 kcal/mol|
|  sn= 7 | S(rot)=      -0.01273583 Eh     -7.99 kcal/mol|
|  sn= 8 | S(rot)=      -0.01286190 Eh     -8.07 kcal/mol|
|  sn= 9 | S(rot)=      -0.01297311 Eh     -8.14 kcal/mol|
|  sn=10 | S(rot)=      -0.01307259 Eh     -8.20 kcal/mol|
|  sn=11 | S(rot)=      -0.01316258 Eh     -8.26 kcal/mol|
|  sn=12 | S(rot)=      -0.01324474 Eh     -8.31 kcal/mol|
 --------------------------------------------------------

-------------------
GIBBS FREE ENERGY
-------------------

The Gibbs free energy is G = H - T*S

Total enthalpy                    ...   -460.83304315 Eh
Total entropy correction          ...     -0.02120379 Eh    -13.31 kcal/mol
-----------------------------------------------------------------------
Final Gibbs free energy         ...   -460.85424694 Eh

For completeness - the Gibbs free energy minus the electronic energy
G-E(el)                           ...     -0.01116595 Eh     -7.01 kcal/mol

                             ****ORCA TERMINATED NORMALLY****
TOTAL RUN TIME: 0 days 0 hours 0 minutes 29 seconds 603 msec
