                         Program Version 4.2.0 -  RELEASE  -
|  1> #
|  2> # 20_HCN tpssh/aug-cc-pvt(+d)z
|  3> #
|  4> ! tpssh d3bj aug-cc-pvt(+d)z def2/jk opt xyzfile numfreq
|  5>
|  6> *xyz 0 1
|  7> C           0.000000000         0.000000000         -0.025909074
|  8> N           0.000000000         0.000000000          1.121277177
|  9> H           0.000000000         0.000000000         -1.095368103
| 10> *
| 11>
| 12> %pal
| 13> nprocs 24
| 14> end
| 15>
| 16>
| 17>                          ****END OF INPUT****
 Total Charge           Charge          ....    0
 Multiplicity           Mult            ....    1
 Number of Electrons    NEL             ....   14
Dispersion correction           -0.000918879
FINAL SINGLE POINT ENERGY       -93.462512608553
Dispersion correction            ... done
Dispersion correction           -0.000918831
FINAL SINGLE POINT ENERGY       -93.462537148421
Dispersion correction            ... done
                    ***********************HURRAY********************

CARTESIAN COORDINATES (ANGSTROEM)
---------------------------------
  C      0.000000   -0.000000   -0.027318
  N     -0.000000    0.000000    1.122823
  H     -0.000000    0.000000   -1.095506

 Multiplicity           Mult            ....    1
 Number of Electrons    NEL             ....   14
 Basis Dimension        Dim             ....  115

ORBITAL ENERGIES
----------------

  NO   OCC          E(Eh)            E(eV)
   0   2.0000     -14.276250      -388.4765
   1   2.0000     -10.169212      -276.7183
   2   2.0000      -0.904644       -24.6166
   3   2.0000      -0.596608       -16.2345
   4   2.0000      -0.369176       -10.0458
   5   2.0000      -0.353085        -9.6079
   6   2.0000      -0.353085        -9.6079
   7   0.0000      -0.017609        -0.4792
   8   0.0000      -0.017609        -0.4792
   9   0.0000      -0.004748        -0.1292
  10   0.0000       0.024266         0.6603
  11   0.0000       0.052852         1.4382

MULLIKEN ATOMIC CHARGES
-----------------------
   0 C :   -0.314211
   1 N :   -0.295309
   2 H :    0.609521
Sum of atomic charges:   -0.0000000

LOEWDIN ATOMIC CHARGES
----------------------
   0 C :    0.083272
   1 N :    0.198002
   2 H :   -0.281274

  Mayer bond orders larger than 0.100000
B(  0-C ,  1-N ) :   2.5060 B(  0-C ,  2-H ) :   0.4815

Dispersion correction           -0.000918822
FINAL SINGLE POINT ENERGY       -93.462537244772

DIPOLE MOMENT
-------------
                                X             Y             Z
Electronic contribution:      0.00000       0.00000       0.33966
Nuclear contribution   :     -0.00000       0.00000      -1.52074
                        -----------------------------------------
Total Dipole Moment    :      0.00000       0.00000      -1.18109
                        -----------------------------------------
Magnitude (a.u.)       :      1.18109
Magnitude (Debye)      :      3.00208

VIBRATIONAL FREQUENCIES
-----------------------

Scaling factor for frequencies =  1.000000000 (already applied!)

   0:         0.00 cm**-1
   1:         0.00 cm**-1
   2:         0.00 cm**-1
   3:         0.00 cm**-1
   4:         0.00 cm**-1
   5:       776.46 cm**-1
   6:       776.47 cm**-1
   7:      2174.11 cm**-1
   8:      3429.67 cm**-1

IR SPECTRUM
-----------

 Mode    freq (cm**-1)   T**2         TX         TY         TZ
-------------------------------------------------------------------
   5:       776.46   39.009133  (  3.861144   4.909246  -0.000003)
   6:       776.47   39.009264  ( -4.909253   3.861153  -0.000001)
   7:      2174.11    0.864036  ( -0.000002   0.000002   0.929535)
   8:      3429.67   63.851683  ( -0.000001   0.000004  -7.990725)

--------------------------
THERMOCHEMISTRY AT 298.15K
--------------------------

Temperature         ... 298.15 K
Pressure            ... 1.00 atm
Total Mass          ... 27.03 AMU
The molecule is recognized as being linear

Throughout the following assumptions are being made:
  (1) The electronic state is orbitally nondegenerate
  (2) There are no thermally accessible electronically excited states
  (3) Hindered rotations indicated by low frequency modes are not
      treated as such but are treated as vibrations and this may
      cause some error
  (4) All equations used are the standard statistical mechanics
      equations for an ideal gas
  (5) All vibrations are strictly harmonic

freq.     776.46  E(vib)   ...       0.05
freq.     776.47  E(vib)   ...       0.05
freq.    2174.11  E(vib)   ...       0.00
freq.    3429.67  E(vib)   ...       0.00

------------
INNER ENERGY
------------

The inner energy is: U= E(el) + E(ZPE) + E(vib) + E(rot) + E(trans)
    E(el)   - is the total energy from the electronic structure calculation
              = E(kin-el) + E(nuc-el) + E(el-el) + E(nuc-nuc)
    E(ZPE)  - the the zero temperature vibrational energy from the frequency calculation
    E(vib)  - the the finite temperature correction to E(ZPE) due to population
              of excited vibrational states
    E(rot)  - is the rotational thermal energy
    E(trans)- is the translational thermal energy

Summary of contributions to the inner energy U:
Electronic energy                ...    -93.46253724 Eh
Zero point energy                ...      0.01630419 Eh      10.23 kcal/mol
Thermal vibrational correction   ...      0.00017123 Eh       0.11 kcal/mol
Thermal rotational correction    ...      0.00094418 Eh       0.59 kcal/mol
Thermal translational correction ...      0.00141627 Eh       0.89 kcal/mol
-----------------------------------------------------------------------
Total thermal energy                    -93.44370137 Eh

Summary of corrections to the electronic energy:
(perhaps to be used in another calculation)
Total thermal correction                  0.00253169 Eh       1.59 kcal/mol
Non-thermal (ZPE) correction              0.01630419 Eh      10.23 kcal/mol
-----------------------------------------------------------------------
Total correction                          0.01883588 Eh      11.82 kcal/mol

--------
ENTHALPY
--------

The enthalpy is H = U + kB*T
                kB is Boltzmann's constant
Total free energy                 ...    -93.44370137 Eh
Thermal Enthalpy correction       ...      0.00094421 Eh       0.59 kcal/mol
-----------------------------------------------------------------------
Total Enthalpy                    ...    -93.44275716 Eh

Note: Rotational entropy computed according to Herzberg
Infrared and Raman Spectra, Chapter V,1, Van Nostrand Reinhold, 1945
Point Group:  Cinfv, Symmetry Number:   1
Rotational constants in cm-1:     0.000000     1.489633     1.489633

Vibrational entropy computed according to the QRRHO of S. Grimme
Chem.Eur.J. 2012 18 9955

-------
ENTROPY
-------

The entropy contributions are T*S = T*(S(el)+S(vib)+S(rot)+S(trans))
     S(el)   - electronic entropy
     S(vib)  - vibrational entropy
     S(rot)  - rotational entropy
     S(trans)- translational entropy
The entropies will be listed as mutliplied by the temperature to get
units of energy

Electronic entropy                ...      0.00000000 Eh      0.00 kcal/mol
Vibrational entropy               ...      0.00021649 Eh      0.14 kcal/mol
Rotational entropy                ...      0.00560398 Eh      3.52 kcal/mol
Translational entropy             ...      0.01701823 Eh     10.68 kcal/mol
-----------------------------------------------------------------------
Final entropy term                ...      0.02283870 Eh     14.33 kcal/mol

In case the symmetry of your molecule has not been determined correctly
or in case you have a reason to use a different symmetry number we print
out the resulting rotational entropy values for sn=1,12 :
 --------------------------------------------------------
|  sn= 1 | S(rot)=      -0.00911713 Eh     -5.72 kcal/mol|
|  sn= 2 | S(rot)=      -0.00977159 Eh     -6.13 kcal/mol|
|  sn= 3 | S(rot)=      -0.01015442 Eh     -6.37 kcal/mol|
|  sn= 4 | S(rot)=      -0.01042605 Eh     -6.54 kcal/mol|
|  sn= 5 | S(rot)=      -0.01063674 Eh     -6.67 kcal/mol|
|  sn= 6 | S(rot)=      -0.01080888 Eh     -6.78 kcal/mol|
|  sn= 7 | S(rot)=      -0.01095443 Eh     -6.87 kcal/mol|
|  sn= 8 | S(rot)=      -0.01108050 Eh     -6.95 kcal/mol|
|  sn= 9 | S(rot)=      -0.01119171 Eh     -7.02 kcal/mol|
|  sn=10 | S(rot)=      -0.01129119 Eh     -7.09 kcal/mol|
|  sn=11 | S(rot)=      -0.01138118 Eh     -7.14 kcal/mol|
|  sn=12 | S(rot)=      -0.01146334 Eh     -7.19 kcal/mol|
 --------------------------------------------------------

-------------------
GIBBS FREE ENERGY
-------------------

The Gibbs free energy is G = H - T*S

Total enthalpy                    ...    -93.44275716 Eh
Total entropy correction          ...     -0.02283870 Eh    -14.33 kcal/mol
-----------------------------------------------------------------------
Final Gibbs free energy         ...    -93.46559586 Eh

For completeness - the Gibbs free energy minus the electronic energy
G-E(el)                           ...     -0.00305862 Eh     -1.92 kcal/mol

                             ****ORCA TERMINATED NORMALLY****
TOTAL RUN TIME: 0 days 0 hours 0 minutes 43 seconds 775 msec
