                         Program Version 4.2.0 -  RELEASE  -
|  1> #
|  2> # 22_HNO tpssh/aug-cc-pvt(+d)z
|  3> #
|  4> ! tpssh d3bj aug-cc-pvt(+d)z def2/jk opt xyzfile numfreq
|  5>
|  6> *xyz 0 1
|  7> N           -0.069457921          0.436213507         -0.000000038
|  8> O            0.951837723         -0.192997589          0.000000094
|  9> H           -0.882379797         -0.243215918         -0.000000056
| 10> *
| 11>
| 12> %pal
| 13> nprocs 24
| 14> end
| 15>
| 16>
| 17>                          ****END OF INPUT****
 Total Charge           Charge          ....    0
 Multiplicity           Mult            ....    1
 Number of Electrons    NEL             ....   16
Dispersion correction           -0.000692626
FINAL SINGLE POINT ENERGY      -130.527644578351
Dispersion correction            ... done
Dispersion correction           -0.000692596
FINAL SINGLE POINT ENERGY      -130.527676699890
Dispersion correction            ... done
Dispersion correction           -0.000692600
FINAL SINGLE POINT ENERGY      -130.527676482775
Dispersion correction            ... done
                    ***********************HURRAY********************

CARTESIAN COORDINATES (ANGSTROEM)
---------------------------------
  N     -0.068165    0.437445   -0.000000
  O      0.955524   -0.192964    0.000000
  H     -0.887359   -0.244480   -0.000000

 Multiplicity           Mult            ....    1
 Number of Electrons    NEL             ....   16
 Basis Dimension        Dim             ....  115

ORBITAL ENERGIES
----------------

  NO   OCC          E(Eh)            E(eV)
   0   2.0000     -19.142948      -520.9061
   1   2.0000     -14.382892      -391.3784
   2   2.0000      -1.158975       -31.5373
   3   2.0000      -0.713843       -19.4247
   4   2.0000      -0.519441       -14.1347
   5   2.0000      -0.454850       -12.3771
   6   2.0000      -0.438579       -11.9343
   7   2.0000      -0.232974        -6.3395
   8   0.0000      -0.133008        -3.6193
   9   0.0000      -0.011624        -0.3163
  10   0.0000       0.044952         1.2232
  11   0.0000       0.063004         1.7144
  12   0.0000       0.069399         1.8884

MULLIKEN ATOMIC CHARGES
-----------------------
   0 N :    0.028685
   1 O :   -0.225432
   2 H :    0.196747
Sum of atomic charges:    0.0000000

LOEWDIN ATOMIC CHARGES
----------------------
   0 N :    0.173269
   1 O :    0.256668
   2 H :   -0.429937

  Mayer bond orders larger than 0.100000
B(  0-N ,  1-O ) :   1.5801 B(  0-N ,  2-H ) :   0.8707

Dispersion correction           -0.000692601
FINAL SINGLE POINT ENERGY      -130.527676445610

DIPOLE MOMENT
-------------
                                X             Y             Z
Electronic contribution:      0.66633       0.04116       0.00000
Nuclear contribution   :     -1.23404      -0.31615      -0.00000
                        -----------------------------------------
Total Dipole Moment    :     -0.56771      -0.27498      -0.00000
                        -----------------------------------------
Magnitude (a.u.)       :      0.63080
Magnitude (Debye)      :      1.60337

VIBRATIONAL FREQUENCIES
-----------------------

Scaling factor for frequencies =  1.000000000 (already applied!)

   0:         0.00 cm**-1
   1:         0.00 cm**-1
   2:         0.00 cm**-1
   3:         0.00 cm**-1
   4:         0.00 cm**-1
   5:         0.00 cm**-1
   6:      1552.16 cm**-1
   7:      1640.81 cm**-1
   8:      2818.39 cm**-1

IR SPECTRUM
-----------

 Mode    freq (cm**-1)   T**2         TX         TY         TZ
-------------------------------------------------------------------
   6:      1552.16    5.152934  ( -0.258497  -2.255241   0.000004)
   7:      1640.81   90.268775  (  9.470711  -0.757901   0.000001)
   8:      2818.39  171.684758  ( 11.978446   5.310516  -0.000003)

--------------------------
THERMOCHEMISTRY AT 298.15K
--------------------------

Temperature         ... 298.15 K
Pressure            ... 1.00 atm
Total Mass          ... 31.01 AMU

Throughout the following assumptions are being made:
  (1) The electronic state is orbitally nondegenerate
  (2) There are no thermally accessible electronically excited states
  (3) Hindered rotations indicated by low frequency modes are not
      treated as such but are treated as vibrations and this may
      cause some error
  (4) All equations used are the standard statistical mechanics
      equations for an ideal gas
  (5) All vibrations are strictly harmonic

freq.    1552.16  E(vib)   ...       0.00
freq.    1640.81  E(vib)   ...       0.00
freq.    2818.39  E(vib)   ...       0.00

------------
INNER ENERGY
------------

The inner energy is: U= E(el) + E(ZPE) + E(vib) + E(rot) + E(trans)
    E(el)   - is the total energy from the electronic structure calculation
              = E(kin-el) + E(nuc-el) + E(el-el) + E(nuc-nuc)
    E(ZPE)  - the the zero temperature vibrational energy from the frequency calculation
    E(vib)  - the the finite temperature correction to E(ZPE) due to population
              of excited vibrational states
    E(rot)  - is the rotational thermal energy
    E(trans)- is the translational thermal energy

Summary of contributions to the inner energy U:
Electronic energy                ...   -130.52767644 Eh
Zero point energy                ...      0.01369488 Eh       8.59 kcal/mol
Thermal vibrational correction   ...      0.00000669 Eh       0.00 kcal/mol
Thermal rotational correction    ...      0.00141627 Eh       0.89 kcal/mol
Thermal translational correction ...      0.00141627 Eh       0.89 kcal/mol
-----------------------------------------------------------------------
Total thermal energy                   -130.51114233 Eh

Summary of corrections to the electronic energy:
(perhaps to be used in another calculation)
Total thermal correction                  0.00283924 Eh       1.78 kcal/mol
Non-thermal (ZPE) correction              0.01369488 Eh       8.59 kcal/mol
-----------------------------------------------------------------------
Total correction                          0.01653411 Eh      10.38 kcal/mol

--------
ENTHALPY
--------

The enthalpy is H = U + kB*T
                kB is Boltzmann's constant
Total free energy                 ...   -130.51114233 Eh
Thermal Enthalpy correction       ...      0.00094421 Eh       0.59 kcal/mol
-----------------------------------------------------------------------
Total Enthalpy                    ...   -130.51019812 Eh

Note: Rotational entropy computed according to Herzberg
Infrared and Raman Spectra, Chapter V,1, Van Nostrand Reinhold, 1945
Point Group:  Cs, Symmetry Number:   1
Rotational constants in cm-1:    18.545975     1.426276     1.324422

Vibrational entropy computed according to the QRRHO of S. Grimme
Chem.Eur.J. 2012 18 9955

-------
ENTROPY
-------

The entropy contributions are T*S = T*(S(el)+S(vib)+S(rot)+S(trans))
     S(el)   - electronic entropy
     S(vib)  - vibrational entropy
     S(rot)  - rotational entropy
     S(trans)- translational entropy
The entropies will be listed as mutliplied by the temperature to get
units of energy

Electronic entropy                ...      0.00000000 Eh      0.00 kcal/mol
Vibrational entropy               ...      0.00000757 Eh      0.00 kcal/mol
Rotational entropy                ...      0.00783192 Eh      4.91 kcal/mol
Translational entropy             ...      0.01721317 Eh     10.80 kcal/mol
-----------------------------------------------------------------------
Final entropy term                ...      0.02505265 Eh     15.72 kcal/mol

In case the symmetry of your molecule has not been determined correctly
or in case you have a reason to use a different symmetry number we print
out the resulting rotational entropy values for sn=1,12 :
 --------------------------------------------------------
|  sn= 1 | S(rot)=       0.00783192 Eh      4.91 kcal/mol|
|  sn= 2 | S(rot)=       0.00717746 Eh      4.50 kcal/mol|
|  sn= 3 | S(rot)=       0.00679463 Eh      4.26 kcal/mol|
|  sn= 4 | S(rot)=       0.00652300 Eh      4.09 kcal/mol|
|  sn= 5 | S(rot)=       0.00631232 Eh      3.96 kcal/mol|
|  sn= 6 | S(rot)=       0.00614017 Eh      3.85 kcal/mol|
|  sn= 7 | S(rot)=       0.00599463 Eh      3.76 kcal/mol|
|  sn= 8 | S(rot)=       0.00586855 Eh      3.68 kcal/mol|
|  sn= 9 | S(rot)=       0.00575734 Eh      3.61 kcal/mol|
|  sn=10 | S(rot)=       0.00565786 Eh      3.55 kcal/mol|
|  sn=11 | S(rot)=       0.00556787 Eh      3.49 kcal/mol|
|  sn=12 | S(rot)=       0.00548572 Eh      3.44 kcal/mol|
 --------------------------------------------------------

-------------------
GIBBS FREE ENERGY
-------------------

The Gibbs free energy is G = H - T*S

Total enthalpy                    ...   -130.51019812 Eh
Total entropy correction          ...     -0.02505265 Eh    -15.72 kcal/mol
-----------------------------------------------------------------------
Final Gibbs free energy         ...   -130.53525077 Eh

For completeness - the Gibbs free energy minus the electronic energy
G-E(el)                           ...     -0.00757433 Eh     -4.75 kcal/mol

                             ****ORCA TERMINATED NORMALLY****
TOTAL RUN TIME: 0 days 0 hours 0 minutes 51 seconds 673 msec
