                         Program Version 4.2.0 -  RELEASE  -
|  1> #
|  2> # 23_HOCl tpssh/aug-cc-pvt(+d)z
|  3> #
|  4> ! tpssh d3bj aug-cc-pvt(+d)z def2/jk opt xyzfile numfreq
|  5>
|  6> *xyz 0 1
|  7> O           -0.345461674          0.464587564          0.000000200
|  8> Cl           1.234116896         -0.128671365         -0.000000477
|  9> H           -0.888655222         -0.335916194          0.000000276
| 10> *
| 11>
| 12> %pal
| 13> nprocs 24
| 14> end
| 15>
| 16>
| 17>                          ****END OF INPUT****
 Total Charge           Charge          ....    0
 Multiplicity           Mult            ....    1
 Number of Electrons    NEL             ....   26
Dispersion correction           -0.001012679
FINAL SINGLE POINT ENERGY      -536.029356017226
Dispersion correction            ... done
Dispersion correction           -0.001012548
FINAL SINGLE POINT ENERGY      -536.029412932440
Dispersion correction            ... done
Dispersion correction           -0.001012510
FINAL SINGLE POINT ENERGY      -536.029429619148
Dispersion correction            ... done
Dispersion correction           -0.001012540
FINAL SINGLE POINT ENERGY      -536.029429850594
Dispersion correction            ... done
                    ***********************HURRAY********************

CARTESIAN COORDINATES (ANGSTROEM)
---------------------------------
  O     -0.351615    0.470753    0.000000
  Cl     1.238194   -0.132170   -0.000000
  H     -0.886580   -0.338583    0.000000

 Multiplicity           Mult            ....    1
 Number of Electrons    NEL             ....   26
 Basis Dimension        Dim             ....  124

ORBITAL ENERGIES
----------------

  NO   OCC          E(Eh)            E(eV)
   0   2.0000    -101.450617     -2760.6116
   1   2.0000     -19.132823      -520.6306
   2   2.0000      -9.426711      -256.5139
   3   2.0000      -7.181049      -195.4063
   4   2.0000      -7.165281      -194.9772
   5   2.0000      -7.164873      -194.9661
   6   2.0000      -1.052489       -28.6397
   7   2.0000      -0.782228       -21.2855
   8   2.0000      -0.519284       -14.1304
   9   2.0000      -0.433871       -11.8062
  10   2.0000      -0.395984       -10.7753
  11   2.0000      -0.307679        -8.3724
  12   2.0000      -0.272493        -7.4149
  13   0.0000      -0.098215        -2.6726
  14   0.0000      -0.011333        -0.3084
  15   0.0000       0.053583         1.4581
  16   0.0000       0.061001         1.6599
  17   0.0000       0.064470         1.7543

MULLIKEN ATOMIC CHARGES
-----------------------
   0 O :   -0.367447
   1 Cl:    0.148818
   2 H :    0.218629
Sum of atomic charges:    0.0000000

LOEWDIN ATOMIC CHARGES
----------------------
   0 O :    0.210917
   1 Cl:    0.481500
   2 H :   -0.692417

  Mayer bond orders larger than 0.100000
B(  0-O ,  1-Cl) :   0.9329 B(  0-O ,  2-H ) :   0.9735

Dispersion correction           -0.001012560
FINAL SINGLE POINT ENERGY      -536.029429678175

DIPOLE MOMENT
-------------
                                X             Y             Z
Electronic contribution:      1.87258      -0.37387      -0.00000
Nuclear contribution   :     -2.22154      -0.11471       0.00000
                        -----------------------------------------
Total Dipole Moment    :     -0.34896      -0.48858       0.00000
                        -----------------------------------------
Magnitude (a.u.)       :      0.60040
Magnitude (Debye)      :      1.52609

VIBRATIONAL FREQUENCIES
-----------------------

Scaling factor for frequencies =  1.000000000 (already applied!)

   0:         0.00 cm**-1
   1:         0.00 cm**-1
   2:         0.00 cm**-1
   3:         0.00 cm**-1
   4:         0.00 cm**-1
   5:         0.00 cm**-1
   6:       743.99 cm**-1
   7:      1261.92 cm**-1
   8:      3728.84 cm**-1

IR SPECTRUM
-----------

 Mode    freq (cm**-1)   T**2         TX         TY         TZ
-------------------------------------------------------------------
   6:       743.99    8.140323  ( -2.735381   0.811180   0.000001)
   7:      1261.92   44.318451  (  6.012720  -2.857561  -0.000002)
   8:      3728.84   69.897166  ( -7.344439  -3.994545   0.000002)

--------------------------
THERMOCHEMISTRY AT 298.15K
--------------------------

Temperature         ... 298.15 K
Pressure            ... 1.00 atm
Total Mass          ... 52.46 AMU

Throughout the following assumptions are being made:
  (1) The electronic state is orbitally nondegenerate
  (2) There are no thermally accessible electronically excited states
  (3) Hindered rotations indicated by low frequency modes are not
      treated as such but are treated as vibrations and this may
      cause some error
  (4) All equations used are the standard statistical mechanics
      equations for an ideal gas
  (5) All vibrations are strictly harmonic

freq.     743.99  E(vib)   ...       0.06
freq.    1261.92  E(vib)   ...       0.01
freq.    3728.84  E(vib)   ...       0.00

------------
INNER ENERGY
------------

The inner energy is: U= E(el) + E(ZPE) + E(vib) + E(rot) + E(trans)
    E(el)   - is the total energy from the electronic structure calculation
              = E(kin-el) + E(nuc-el) + E(el-el) + E(nuc-nuc)
    E(ZPE)  - the the zero temperature vibrational energy from the frequency calculation
    E(vib)  - the the finite temperature correction to E(ZPE) due to population
              of excited vibrational states
    E(rot)  - is the rotational thermal energy
    E(trans)- is the translational thermal energy

Summary of contributions to the inner energy U:
Electronic energy                ...   -536.02942968 Eh
Zero point energy                ...      0.01306472 Eh       8.20 kcal/mol
Thermal vibrational correction   ...      0.00010926 Eh       0.07 kcal/mol
Thermal rotational correction    ...      0.00141627 Eh       0.89 kcal/mol
Thermal translational correction ...      0.00141627 Eh       0.89 kcal/mol
-----------------------------------------------------------------------
Total thermal energy                   -536.01342316 Eh

Summary of corrections to the electronic energy:
(perhaps to be used in another calculation)
Total thermal correction                  0.00294180 Eh       1.85 kcal/mol
Non-thermal (ZPE) correction              0.01306472 Eh       8.20 kcal/mol
-----------------------------------------------------------------------
Total correction                          0.01600652 Eh      10.04 kcal/mol

--------
ENTHALPY
--------

The enthalpy is H = U + kB*T
                kB is Boltzmann's constant
Total free energy                 ...   -536.01342316 Eh
Thermal Enthalpy correction       ...      0.00094421 Eh       0.59 kcal/mol
-----------------------------------------------------------------------
Total Enthalpy                    ...   -536.01247895 Eh

Note: Rotational entropy computed according to Herzberg
Infrared and Raman Spectra, Chapter V,1, Van Nostrand Reinhold, 1945
Point Group:  Cs, Symmetry Number:   1
Rotational constants in cm-1:    20.198780     0.498486     0.486481

Vibrational entropy computed according to the QRRHO of S. Grimme
Chem.Eur.J. 2012 18 9955

-------
ENTROPY
-------

The entropy contributions are T*S = T*(S(el)+S(vib)+S(rot)+S(trans))
     S(el)   - electronic entropy
     S(vib)  - vibrational entropy
     S(rot)  - rotational entropy
     S(trans)- translational entropy
The entropies will be listed as mutliplied by the temperature to get
units of energy

Electronic entropy                ...      0.00000000 Eh      0.00 kcal/mol
Vibrational entropy               ...      0.00013791 Eh      0.09 kcal/mol
Rotational entropy                ...      0.00876071 Eh      5.50 kcal/mol
Translational entropy             ...      0.01795758 Eh     11.27 kcal/mol
-----------------------------------------------------------------------
Final entropy term                ...      0.02685621 Eh     16.85 kcal/mol

In case the symmetry of your molecule has not been determined correctly
or in case you have a reason to use a different symmetry number we print
out the resulting rotational entropy values for sn=1,12 :
 --------------------------------------------------------
|  sn= 1 | S(rot)=       0.00876071 Eh      5.50 kcal/mol|
|  sn= 2 | S(rot)=       0.00810626 Eh      5.09 kcal/mol|
|  sn= 3 | S(rot)=       0.00772342 Eh      4.85 kcal/mol|
|  sn= 4 | S(rot)=       0.00745180 Eh      4.68 kcal/mol|
|  sn= 5 | S(rot)=       0.00724111 Eh      4.54 kcal/mol|
|  sn= 6 | S(rot)=       0.00706897 Eh      4.44 kcal/mol|
|  sn= 7 | S(rot)=       0.00692342 Eh      4.34 kcal/mol|
|  sn= 8 | S(rot)=       0.00679734 Eh      4.27 kcal/mol|
|  sn= 9 | S(rot)=       0.00668614 Eh      4.20 kcal/mol|
|  sn=10 | S(rot)=       0.00658666 Eh      4.13 kcal/mol|
|  sn=11 | S(rot)=       0.00649667 Eh      4.08 kcal/mol|
|  sn=12 | S(rot)=       0.00641451 Eh      4.03 kcal/mol|
 --------------------------------------------------------

-------------------
GIBBS FREE ENERGY
-------------------

The Gibbs free energy is G = H - T*S

Total enthalpy                    ...   -536.01247895 Eh
Total entropy correction          ...     -0.02685621 Eh    -16.85 kcal/mol
-----------------------------------------------------------------------
Final Gibbs free energy         ...   -536.03933516 Eh

For completeness - the Gibbs free energy minus the electronic energy
G-E(el)                           ...     -0.00990548 Eh     -6.22 kcal/mol

                             ****ORCA TERMINATED NORMALLY****
TOTAL RUN TIME: 0 days 0 hours 1 minutes 30 seconds 366 msec
