                         Program Version 4.2.0 -  RELEASE  -
|  1> #
|  2> # 25_NH3 tpssh/aug-cc-pvt(+d)z
|  3> #
|  4> ! tpssh d3bj aug-cc-pvt(+d)z def2/jk opt xyzfile numfreq
|  5>
|  6> *xyz 0 1
|  7> N           -0.002380744         -0.000680215          0.281658228
|  8> H           -0.519925577         -0.785969146         -0.100203124
|  9> H           -0.419725272          0.844282023         -0.095448346
| 10> H            0.942031593         -0.057632663         -0.086006759
| 11> *
| 12>
| 13> %pal
| 14> nprocs 24
| 15> end
| 16>
| 17>
| 18>                          ****END OF INPUT****
 Total Charge           Charge          ....    0
 Multiplicity           Mult            ....    1
 Number of Electrons    NEL             ....   10
Dispersion correction           -0.000783641
FINAL SINGLE POINT ENERGY       -56.584137938035
Dispersion correction            ... done
Dispersion correction           -0.000783682
FINAL SINGLE POINT ENERGY       -56.584153504283
Dispersion correction            ... done
Dispersion correction           -0.000783739
FINAL SINGLE POINT ENERGY       -56.584149645135
Dispersion correction            ... done
                    ***********************HURRAY********************

CARTESIAN COORDINATES (ANGSTROEM)
---------------------------------
  N     -0.002449   -0.000755    0.293340
  H     -0.516977   -0.781750   -0.104057
  H     -0.417284    0.839767   -0.099347
  H      0.936710   -0.057262   -0.089937

 Multiplicity           Mult            ....    1
 Number of Electrons    NEL             ....   10
 Basis Dimension        Dim             ....  115

ORBITAL ENERGIES
----------------

  NO   OCC          E(Eh)            E(eV)
   0   2.0000     -14.231980      -387.2719
   1   2.0000      -0.834221       -22.7003
   2   2.0000      -0.442949       -12.0533
   3   2.0000      -0.442819       -12.0497
   4   2.0000      -0.253825        -6.9069
   5   0.0000      -0.015061        -0.4098
   6   0.0000       0.025839         0.7031
   7   0.0000       0.026026         0.7082
   8   0.0000       0.071142         1.9359
   9   0.0000       0.091740         2.4964

MULLIKEN ATOMIC CHARGES
-----------------------
   0 N :   -0.335918
   1 H :    0.107098
   2 H :    0.108593
   3 H :    0.120228
Sum of atomic charges:   -0.0000000

LOEWDIN ATOMIC CHARGES
----------------------
   0 N :    1.080655
   1 H :   -0.360300
   2 H :   -0.359917
   3 H :   -0.360438

  Mayer bond orders larger than 0.100000
B(  0-N ,  1-H ) :   0.9695 B(  0-N ,  2-H ) :   0.9667 B(  0-N ,  3-H ) :   0.9475

Dispersion correction           -0.000783737
FINAL SINGLE POINT ENERGY       -56.584150378503

DIPOLE MOMENT
-------------
                                X             Y             Z
Electronic contribution:     -0.00288      -0.00040       0.29383
Nuclear contribution   :      0.00755       0.00233      -0.90498
                        -----------------------------------------
Total Dipole Moment    :      0.00467       0.00193      -0.61115
                        -----------------------------------------
Magnitude (a.u.)       :      0.61117
Magnitude (Debye)      :      1.55347

VIBRATIONAL FREQUENCIES
-----------------------

Scaling factor for frequencies =  1.000000000 (already applied!)

   0:         0.00 cm**-1
   1:         0.00 cm**-1
   2:         0.00 cm**-1
   3:         0.00 cm**-1
   4:         0.00 cm**-1
   5:         0.00 cm**-1
   6:      1083.70 cm**-1
   7:      1676.17 cm**-1
   8:      1676.90 cm**-1
   9:      3440.05 cm**-1
  10:      3557.80 cm**-1
  11:      3559.11 cm**-1

IR SPECTRUM
-----------

 Mode    freq (cm**-1)   T**2         TX         TY         TZ
-------------------------------------------------------------------
   6:      1083.70  112.390531  ( -0.181559  -0.046048  10.599785)
   7:      1676.17   13.799224  ( -2.110496   3.056921   0.016307)
   8:      1676.90   13.989874  (  3.109376   2.078846   0.007146)
   9:      3440.05    5.691383  (  0.010164  -0.074853   2.384466)
  10:      3557.80    1.364153  (  0.215486  -1.147919  -0.000096)
  11:      3559.11    0.993038  ( -0.972303  -0.208039   0.066210)

--------------------------
THERMOCHEMISTRY AT 298.15K
--------------------------

Temperature         ... 298.15 K
Pressure            ... 1.00 atm
Total Mass          ... 17.03 AMU

Throughout the following assumptions are being made:
  (1) The electronic state is orbitally nondegenerate
  (2) There are no thermally accessible electronically excited states
  (3) Hindered rotations indicated by low frequency modes are not
      treated as such but are treated as vibrations and this may
      cause some error
  (4) All equations used are the standard statistical mechanics
      equations for an ideal gas
  (5) All vibrations are strictly harmonic

freq.    1083.70  E(vib)   ...       0.02
freq.    1676.17  E(vib)   ...       0.00
freq.    1676.90  E(vib)   ...       0.00
freq.    3440.05  E(vib)   ...       0.00
freq.    3557.80  E(vib)   ...       0.00
freq.    3559.11  E(vib)   ...       0.00

------------
INNER ENERGY
------------

The inner energy is: U= E(el) + E(ZPE) + E(vib) + E(rot) + E(trans)
    E(el)   - is the total energy from the electronic structure calculation
              = E(kin-el) + E(nuc-el) + E(el-el) + E(nuc-nuc)
    E(ZPE)  - the the zero temperature vibrational energy from the frequency calculation
    E(vib)  - the the finite temperature correction to E(ZPE) due to population
              of excited vibrational states
    E(rot)  - is the rotational thermal energy
    E(trans)- is the translational thermal energy

Summary of contributions to the inner energy U:
Electronic energy                ...    -56.58415038 Eh
Zero point energy                ...      0.03415823 Eh      21.43 kcal/mol
Thermal vibrational correction   ...      0.00003128 Eh       0.02 kcal/mol
Thermal rotational correction    ...      0.00141627 Eh       0.89 kcal/mol
Thermal translational correction ...      0.00141627 Eh       0.89 kcal/mol
-----------------------------------------------------------------------
Total thermal energy                    -56.54712833 Eh

Summary of corrections to the electronic energy:
(perhaps to be used in another calculation)
Total thermal correction                  0.00286382 Eh       1.80 kcal/mol
Non-thermal (ZPE) correction              0.03415823 Eh      21.43 kcal/mol
-----------------------------------------------------------------------
Total correction                          0.03702205 Eh      23.23 kcal/mol

--------
ENTHALPY
--------

The enthalpy is H = U + kB*T
                kB is Boltzmann's constant
Total free energy                 ...    -56.54712833 Eh
Thermal Enthalpy correction       ...      0.00094421 Eh       0.59 kcal/mol
-----------------------------------------------------------------------
Total Enthalpy                    ...    -56.54618412 Eh

Note: Only C1 symmetry has been detected, increase convergence thresholds
      if your molecule has a higher symmetry. Symmetry factor of 1.0 is
      used for the rotational entropy correction.

Note: Rotational entropy computed according to Herzberg
Infrared and Raman Spectra, Chapter V,1, Van Nostrand Reinhold, 1945
Point Group:  C1, Symmetry Number:   1
Rotational constants in cm-1:     9.858668     9.854300     6.338308

Vibrational entropy computed according to the QRRHO of S. Grimme
Chem.Eur.J. 2012 18 9955

-------
ENTROPY
-------

The entropy contributions are T*S = T*(S(el)+S(vib)+S(rot)+S(trans))
     S(el)   - electronic entropy
     S(vib)  - vibrational entropy
     S(rot)  - rotational entropy
     S(trans)- translational entropy
The entropies will be listed as mutliplied by the temperature to get
units of energy

Electronic entropy                ...      0.00000000 Eh      0.00 kcal/mol
Vibrational entropy               ...      0.00003694 Eh      0.02 kcal/mol
Rotational entropy                ...      0.00647863 Eh      4.07 kcal/mol
Translational entropy             ...      0.01636425 Eh     10.27 kcal/mol
-----------------------------------------------------------------------
Final entropy term                ...      0.02287983 Eh     14.36 kcal/mol

In case the symmetry of your molecule has not been determined correctly
or in case you have a reason to use a different symmetry number we print
out the resulting rotational entropy values for sn=1,12 :
 --------------------------------------------------------
|  sn= 1 | S(rot)=       0.00647863 Eh      4.07 kcal/mol|
|  sn= 2 | S(rot)=       0.00582418 Eh      3.65 kcal/mol|
|  sn= 3 | S(rot)=       0.00544135 Eh      3.41 kcal/mol|
|  sn= 4 | S(rot)=       0.00516972 Eh      3.24 kcal/mol|
|  sn= 5 | S(rot)=       0.00495903 Eh      3.11 kcal/mol|
|  sn= 6 | S(rot)=       0.00478689 Eh      3.00 kcal/mol|
|  sn= 7 | S(rot)=       0.00464134 Eh      2.91 kcal/mol|
|  sn= 8 | S(rot)=       0.00451526 Eh      2.83 kcal/mol|
|  sn= 9 | S(rot)=       0.00440406 Eh      2.76 kcal/mol|
|  sn=10 | S(rot)=       0.00430458 Eh      2.70 kcal/mol|
|  sn=11 | S(rot)=       0.00421459 Eh      2.64 kcal/mol|
|  sn=12 | S(rot)=       0.00413243 Eh      2.59 kcal/mol|
 --------------------------------------------------------

-------------------
GIBBS FREE ENERGY
-------------------

The Gibbs free energy is G = H - T*S

Total enthalpy                    ...    -56.54618412 Eh
Total entropy correction          ...     -0.02287983 Eh    -14.36 kcal/mol
-----------------------------------------------------------------------
Final Gibbs free energy         ...    -56.56906395 Eh

For completeness - the Gibbs free energy minus the electronic energy
G-E(el)                           ...      0.01508643 Eh      9.47 kcal/mol

                             ****ORCA TERMINATED NORMALLY****
TOTAL RUN TIME: 0 days 0 hours 0 minutes 41 seconds 429 msec
