                         Program Version 4.2.0 -  RELEASE  -
|  1> #
|  2> # 26_N2O tpssh/aug-cc-pvt(+d)z
|  3> #
|  4> ! tpssh d3bj aug-cc-pvt(+d)z def2/jk opt xyzfile numfreq
|  5>
|  6> *xyz 0 1
|  7> N           -0.000000050          0.000000033         -1.122425998
|  8> N           -0.000000002          0.000000001         -0.001729371
|  9> O            0.000000052         -0.000000034          1.183155373
| 10> *
| 11>
| 12> %pal
| 13> nprocs 24
| 14> end
| 15>
| 16>
| 17>                          ****END OF INPUT****
 Total Charge           Charge          ....    0
 Multiplicity           Mult            ....    1
 Number of Electrons    NEL             ....   22
Dispersion correction           -0.001133491
FINAL SINGLE POINT ENERGY      -184.745384253497
Dispersion correction            ... done
Dispersion correction           -0.001133189
FINAL SINGLE POINT ENERGY      -184.745468798582
Dispersion correction            ... done
Dispersion correction           -0.001133179
FINAL SINGLE POINT ENERGY      -184.745469308466
Dispersion correction            ... done
                    ***********************HURRAY********************

CARTESIAN COORDINATES (ANGSTROEM)
---------------------------------
  N     -0.000000    0.000000   -1.126851
  N     -0.000000    0.000000    0.000207
  O      0.000000   -0.000000    1.185644

 Multiplicity           Mult            ....    1
 Number of Electrons    NEL             ....   22
 Basis Dimension        Dim             ....  138

ORBITAL ENERGIES
----------------

  NO   OCC          E(Eh)            E(eV)
   0   2.0000     -19.157866      -521.3120
   1   2.0000     -14.474969      -393.8839
   2   2.0000     -14.347810      -390.4238
   3   2.0000      -1.221377       -33.2354
   4   2.0000      -1.062490       -28.9118
   5   2.0000      -0.590725       -16.0744
   6   2.0000      -0.546030       -14.8582
   7   2.0000      -0.546030       -14.8582
   8   2.0000      -0.461912       -12.5693
   9   2.0000      -0.331085        -9.0093
  10   2.0000      -0.331085        -9.0093
  11   0.0000      -0.036686        -0.9983
  12   0.0000      -0.036686        -0.9983
  13   0.0000       0.000696         0.0189
  14   0.0000       0.050709         1.3799
  15   0.0000       0.069700         1.8966

MULLIKEN ATOMIC CHARGES
-----------------------
   0 N :   -0.433641
   1 N :    0.835936
   2 O :   -0.402295
Sum of atomic charges:   -0.0000000

LOEWDIN ATOMIC CHARGES
----------------------
   0 N :    0.204505
   1 N :   -0.503375
   2 O :    0.298870

  Mayer bond orders larger than 0.100000
B(  0-N ,  1-N ) :   1.6163 B(  0-N ,  2-O ) :   0.4833 B(  1-N ,  2-O ) :   1.3930

Dispersion correction           -0.001133181
FINAL SINGLE POINT ENERGY      -184.745469433664

DIPOLE MOMENT
-------------
                                X             Y             Z
Electronic contribution:     -0.00000       0.00000      -0.00350
Nuclear contribution   :      0.00000      -0.00000       0.00946
                        -----------------------------------------
Total Dipole Moment    :     -0.00000       0.00000       0.00596
                        -----------------------------------------
Magnitude (a.u.)       :      0.00596
Magnitude (Debye)      :      0.01515

VIBRATIONAL FREQUENCIES
-----------------------

Scaling factor for frequencies =  1.000000000 (already applied!)

   0:         0.00 cm**-1
   1:         0.00 cm**-1
   2:         0.00 cm**-1
   3:         0.00 cm**-1
   4:         0.00 cm**-1
   5:       613.12 cm**-1
   6:       613.13 cm**-1
   7:      1316.95 cm**-1
   8:      2318.67 cm**-1

IR SPECTRUM
-----------

 Mode    freq (cm**-1)   T**2         TX         TY         TZ
-------------------------------------------------------------------
   5:       613.12    3.921026  ( -1.396016   1.404337   0.000003)
   6:       613.13    3.921021  ( -1.404337  -1.396016   0.000002)
   7:      1316.95   59.617785  (  0.000001  -0.000000   7.721255)
   8:      2318.67  367.506091  (  0.000001  -0.000000  19.170448)

--------------------------
THERMOCHEMISTRY AT 298.15K
--------------------------

Temperature         ... 298.15 K
Pressure            ... 1.00 atm
Total Mass          ... 44.01 AMU
The molecule is recognized as being linear

Throughout the following assumptions are being made:
  (1) The electronic state is orbitally nondegenerate
  (2) There are no thermally accessible electronically excited states
  (3) Hindered rotations indicated by low frequency modes are not
      treated as such but are treated as vibrations and this may
      cause some error
  (4) All equations used are the standard statistical mechanics
      equations for an ideal gas
  (5) All vibrations are strictly harmonic

freq.     613.12  E(vib)   ...       0.10
freq.     613.13  E(vib)   ...       0.10
freq.    1316.95  E(vib)   ...       0.01
freq.    2318.67  E(vib)   ...       0.00

------------
INNER ENERGY
------------

The inner energy is: U= E(el) + E(ZPE) + E(vib) + E(rot) + E(trans)
    E(el)   - is the total energy from the electronic structure calculation
              = E(kin-el) + E(nuc-el) + E(el-el) + E(nuc-nuc)
    E(ZPE)  - the the zero temperature vibrational energy from the frequency calculation
    E(vib)  - the the finite temperature correction to E(ZPE) due to population
              of excited vibrational states
    E(rot)  - is the rotational thermal energy
    E(trans)- is the translational thermal energy

Summary of contributions to the inner energy U:
Electronic energy                ...   -184.74546944 Eh
Zero point energy                ...      0.01107615 Eh       6.95 kcal/mol
Thermal vibrational correction   ...      0.00031637 Eh       0.20 kcal/mol
Thermal rotational correction    ...      0.00094418 Eh       0.59 kcal/mol
Thermal translational correction ...      0.00141627 Eh       0.89 kcal/mol
-----------------------------------------------------------------------
Total thermal energy                   -184.73171647 Eh

Summary of corrections to the electronic energy:
(perhaps to be used in another calculation)
Total thermal correction                  0.00267682 Eh       1.68 kcal/mol
Non-thermal (ZPE) correction              0.01107615 Eh       6.95 kcal/mol
-----------------------------------------------------------------------
Total correction                          0.01375297 Eh       8.63 kcal/mol

--------
ENTHALPY
--------

The enthalpy is H = U + kB*T
                kB is Boltzmann's constant
Total free energy                 ...   -184.73171647 Eh
Thermal Enthalpy correction       ...      0.00094421 Eh       0.59 kcal/mol
-----------------------------------------------------------------------
Total Enthalpy                    ...   -184.73077226 Eh

Note: Rotational entropy computed according to Herzberg
Infrared and Raman Spectra, Chapter V,1, Van Nostrand Reinhold, 1945
Point Group:  Cinfv, Symmetry Number:   1
Rotational constants in cm-1:     0.000000     0.420961     0.420961

Vibrational entropy computed according to the QRRHO of S. Grimme
Chem.Eur.J. 2012 18 9955

-------
ENTROPY
-------

The entropy contributions are T*S = T*(S(el)+S(vib)+S(rot)+S(trans))
     S(el)   - electronic entropy
     S(vib)  - vibrational entropy
     S(rot)  - rotational entropy
     S(trans)- translational entropy
The entropies will be listed as mutliplied by the temperature to get
units of energy

Electronic entropy                ...      0.00000000 Eh      0.00 kcal/mol
Vibrational entropy               ...      0.00041906 Eh      0.26 kcal/mol
Rotational entropy                ...      0.00679718 Eh      4.27 kcal/mol
Translational entropy             ...      0.01770893 Eh     11.11 kcal/mol
-----------------------------------------------------------------------
Final entropy term                ...      0.02492517 Eh     15.64 kcal/mol

In case the symmetry of your molecule has not been determined correctly
or in case you have a reason to use a different symmetry number we print
out the resulting rotational entropy values for sn=1,12 :
 --------------------------------------------------------
|  sn= 1 | S(rot)=      -0.00888887 Eh     -5.58 kcal/mol|
|  sn= 2 | S(rot)=      -0.00954333 Eh     -5.99 kcal/mol|
|  sn= 3 | S(rot)=      -0.00992616 Eh     -6.23 kcal/mol|
|  sn= 4 | S(rot)=      -0.01019778 Eh     -6.40 kcal/mol|
|  sn= 5 | S(rot)=      -0.01040847 Eh     -6.53 kcal/mol|
|  sn= 6 | S(rot)=      -0.01058061 Eh     -6.64 kcal/mol|
|  sn= 7 | S(rot)=      -0.01072616 Eh     -6.73 kcal/mol|
|  sn= 8 | S(rot)=      -0.01085224 Eh     -6.81 kcal/mol|
|  sn= 9 | S(rot)=      -0.01096345 Eh     -6.88 kcal/mol|
|  sn=10 | S(rot)=      -0.01106293 Eh     -6.94 kcal/mol|
|  sn=11 | S(rot)=      -0.01115292 Eh     -7.00 kcal/mol|
|  sn=12 | S(rot)=      -0.01123507 Eh     -7.05 kcal/mol|
 --------------------------------------------------------

-------------------
GIBBS FREE ENERGY
-------------------

The Gibbs free energy is G = H - T*S

Total enthalpy                    ...   -184.73077226 Eh
Total entropy correction          ...     -0.02492517 Eh    -15.64 kcal/mol
-----------------------------------------------------------------------
Final Gibbs free energy         ...   -184.75569742 Eh

For completeness - the Gibbs free energy minus the electronic energy
G-E(el)                           ...     -0.01022799 Eh     -6.42 kcal/mol

                             ****ORCA TERMINATED NORMALLY****
TOTAL RUN TIME: 0 days 0 hours 1 minutes 28 seconds 469 msec
