                         Program Version 4.2.0 -  RELEASE  -
|  1> #
|  2> # 27_OCS tpssh/aug-cc-pvt(+d)z
|  3> #
|  4> ! tpssh d3bj aug-cc-pvt(+d)z def2/jk opt xyzfile numfreq
|  5>
|  6> *xyz 0 1
|  7> O            0.000000135         -0.000000067         -1.270762684
|  8> C            0.000000037         -0.000000044         -0.116817432
|  9> S           -0.000000173          0.000000112          1.446580115
| 10> *
| 11>
| 12> %pal
| 13> nprocs 24
| 14> end
| 15>
| 16>
| 17>                          ****END OF INPUT****
 Total Charge           Charge          ....    0
 Multiplicity           Mult            ....    1
 Number of Electrons    NEL             ....   30
Dispersion correction           -0.001916686
FINAL SINGLE POINT ENERGY      -511.625370503832
Dispersion correction            ... done
Dispersion correction           -0.001915983
FINAL SINGLE POINT ENERGY      -511.625442654128
Dispersion correction            ... done
Dispersion correction           -0.001915852
FINAL SINGLE POINT ENERGY      -511.625445182583
Dispersion correction            ... done
                    ***********************HURRAY********************

CARTESIAN COORDINATES (ANGSTROEM)
---------------------------------
  O      0.000000   -0.000000   -1.275165
  C      0.000000   -0.000000   -0.114606
  S     -0.000000    0.000000    1.448771

 Multiplicity           Mult            ....    1
 Number of Electrons    NEL             ....   30
 Basis Dimension        Dim             ....  147

ORBITAL ENERGIES
----------------

  NO   OCC          E(Eh)            E(eV)
   0   2.0000     -88.779801     -2415.8212
   1   2.0000     -19.141344      -520.8625
   2   2.0000     -10.273333      -279.5516
   3   2.0000      -7.904750      -215.0992
   4   2.0000      -5.856664      -159.3679
   5   2.0000      -5.849940      -159.1850
   6   2.0000      -5.849940      -159.1850
   7   2.0000      -1.118286       -30.4301
   8   2.0000      -0.802083       -21.8258
   9   2.0000      -0.534564       -14.5462
  10   2.0000      -0.460432       -12.5290
  11   2.0000      -0.460432       -12.5290
  12   2.0000      -0.457951       -12.4615
  13   2.0000      -0.295400        -8.0382
  14   2.0000      -0.295400        -8.0382
  15   0.0000      -0.054190        -1.4746
  16   0.0000      -0.054190        -1.4746
  17   0.0000      -0.007315        -0.1990
  18   0.0000       0.023384         0.6363
  19   0.0000       0.038513         1.0480

MULLIKEN ATOMIC CHARGES
-----------------------
   0 O :   -0.140993
   1 C :   -0.020389
   2 S :    0.161382
Sum of atomic charges:    0.0000000

LOEWDIN ATOMIC CHARGES
----------------------
   0 O :    0.315641
   1 C :   -1.150459
   2 S :    0.834818

  Mayer bond orders larger than 0.100000
B(  0-O ,  1-C ) :   2.0949 B(  0-O ,  2-S ) :   0.2118 B(  1-C ,  2-S ) :   1.6925

Dispersion correction           -0.001915868
FINAL SINGLE POINT ENERGY      -511.625445461488

DIPOLE MOMENT
-------------
                                X             Y             Z
Electronic contribution:     -0.00000       0.00000       0.34281
Nuclear contribution   :      0.00000      -0.00000      -0.05498
                        -----------------------------------------
Total Dipole Moment    :     -0.00000       0.00000       0.28782
                        -----------------------------------------
Magnitude (a.u.)       :      0.28782
Magnitude (Debye)      :      0.73158

VIBRATIONAL FREQUENCIES
-----------------------

Scaling factor for frequencies =  1.000000000 (already applied!)

   0:         0.00 cm**-1
   1:         0.00 cm**-1
   2:         0.00 cm**-1
   3:         0.00 cm**-1
   4:         0.00 cm**-1
   5:         0.00 cm**-1
   6:       528.29 cm**-1
   7:       875.64 cm**-1
   8:      2095.39 cm**-1

IR SPECTRUM
-----------

 Mode    freq (cm**-1)   T**2         TX         TY         TZ
-------------------------------------------------------------------
   6:       528.29    0.963279  ( -0.734871   0.650571   0.000002)
   7:       875.64    8.175049  ( -0.000000   0.000000   2.859204)
   8:      2095.39  698.150131  ( -0.000003   0.000002  26.422531)

--------------------------
THERMOCHEMISTRY AT 298.15K
--------------------------

Temperature         ... 298.15 K
Pressure            ... 1.00 atm
Total Mass          ... 60.07 AMU
The molecule is recognized as being linear

Throughout the following assumptions are being made:
  (1) The electronic state is orbitally nondegenerate
  (2) There are no thermally accessible electronically excited states
  (3) Hindered rotations indicated by low frequency modes are not
      treated as such but are treated as vibrations and this may
      cause some error
  (4) All equations used are the standard statistical mechanics
      equations for an ideal gas
  (5) All vibrations are strictly harmonic

freq.     528.29  E(vib)   ...       0.13
freq.     875.64  E(vib)   ...       0.04
freq.    2095.39  E(vib)   ...       0.00

------------
INNER ENERGY
------------

The inner energy is: U= E(el) + E(ZPE) + E(vib) + E(rot) + E(trans)
    E(el)   - is the total energy from the electronic structure calculation
              = E(kin-el) + E(nuc-el) + E(el-el) + E(nuc-nuc)
    E(ZPE)  - the the zero temperature vibrational energy from the frequency calculation
    E(vib)  - the the finite temperature correction to E(ZPE) due to population
              of excited vibrational states
    E(rot)  - is the rotational thermal energy
    E(trans)- is the translational thermal energy

Summary of contributions to the inner energy U:
Electronic energy                ...   -511.62544546 Eh
Zero point energy                ...      0.00797205 Eh       5.00 kcal/mol
Thermal vibrational correction   ...      0.00026360 Eh       0.17 kcal/mol
Thermal rotational correction    ...      0.00094418 Eh       0.59 kcal/mol
Thermal translational correction ...      0.00141627 Eh       0.89 kcal/mol
-----------------------------------------------------------------------
Total thermal energy                   -511.61484936 Eh

Summary of corrections to the electronic energy:
(perhaps to be used in another calculation)
Total thermal correction                  0.00262405 Eh       1.65 kcal/mol
Non-thermal (ZPE) correction              0.00797205 Eh       5.00 kcal/mol
-----------------------------------------------------------------------
Total correction                          0.01059610 Eh       6.65 kcal/mol

--------
ENTHALPY
--------

The enthalpy is H = U + kB*T
                kB is Boltzmann's constant
Total free energy                 ...   -511.61484936 Eh
Thermal Enthalpy correction       ...      0.00094421 Eh       0.59 kcal/mol
-----------------------------------------------------------------------
Total Enthalpy                    ...   -511.61390515 Eh

Note: Rotational entropy computed according to Herzberg
Infrared and Raman Spectra, Chapter V,1, Van Nostrand Reinhold, 1945
Point Group:  Cinfv, Symmetry Number:   1
Rotational constants in cm-1:     0.000000     0.202292     0.202292

Vibrational entropy computed according to the QRRHO of S. Grimme
Chem.Eur.J. 2012 18 9955

-------
ENTROPY
-------

The entropy contributions are T*S = T*(S(el)+S(vib)+S(rot)+S(trans))
     S(el)   - electronic entropy
     S(vib)  - vibrational entropy
     S(rot)  - rotational entropy
     S(trans)- translational entropy
The entropies will be listed as mutliplied by the temperature to get
units of energy

Electronic entropy                ...      0.00000000 Eh      0.00 kcal/mol
Vibrational entropy               ...      0.00035476 Eh      0.22 kcal/mol
Rotational entropy                ...      0.00748911 Eh      4.70 kcal/mol
Translational entropy             ...      0.01814943 Eh     11.39 kcal/mol
-----------------------------------------------------------------------
Final entropy term                ...      0.02599330 Eh     16.31 kcal/mol

In case the symmetry of your molecule has not been determined correctly
or in case you have a reason to use a different symmetry number we print
out the resulting rotational entropy values for sn=1,12 :
 --------------------------------------------------------
|  sn= 1 | S(rot)=      -0.00532149 Eh     -3.34 kcal/mol|
|  sn= 2 | S(rot)=      -0.00597595 Eh     -3.75 kcal/mol|
|  sn= 3 | S(rot)=      -0.00635878 Eh     -3.99 kcal/mol|
|  sn= 4 | S(rot)=      -0.00663041 Eh     -4.16 kcal/mol|
|  sn= 5 | S(rot)=      -0.00684110 Eh     -4.29 kcal/mol|
|  sn= 6 | S(rot)=      -0.00701324 Eh     -4.40 kcal/mol|
|  sn= 7 | S(rot)=      -0.00715879 Eh     -4.49 kcal/mol|
|  sn= 8 | S(rot)=      -0.00728486 Eh     -4.57 kcal/mol|
|  sn= 9 | S(rot)=      -0.00739607 Eh     -4.64 kcal/mol|
|  sn=10 | S(rot)=      -0.00749555 Eh     -4.70 kcal/mol|
|  sn=11 | S(rot)=      -0.00758554 Eh     -4.76 kcal/mol|
|  sn=12 | S(rot)=      -0.00766770 Eh     -4.81 kcal/mol|
 --------------------------------------------------------

-------------------
GIBBS FREE ENERGY
-------------------

The Gibbs free energy is G = H - T*S

Total enthalpy                    ...   -511.61390515 Eh
Total entropy correction          ...     -0.02599330 Eh    -16.31 kcal/mol
-----------------------------------------------------------------------
Final Gibbs free energy         ...   -511.63989845 Eh

For completeness - the Gibbs free energy minus the electronic energy
G-E(el)                           ...     -0.01445299 Eh     -9.07 kcal/mol

                             ****ORCA TERMINATED NORMALLY****
TOTAL RUN TIME: 0 days 0 hours 2 minutes 30 seconds 196 msec
