                         Program Version 4.2.0 -  RELEASE  -
|  1> #
|  2> # 28_PH3 tpssh/aug-cc-pvt(+d)z
|  3> #
|  4> ! tpssh d3bj aug-cc-pvt(+d)z def2/jk opt xyzfile numfreq
|  5>
|  6> *xyz 0 1
|  7> P           -0.005097099         -0.001153152          0.571181006
|  8> H           -0.658920833         -0.993994611         -0.198293924
|  9> H           -0.529115053          1.069739515         -0.192973374
| 10> H            1.193132979         -0.074591751         -0.179913708
| 11> *
| 12>
| 13> %pal
| 14> nprocs 24
| 15> end
| 16>
| 17>
| 18>                          ****END OF INPUT****
 Total Charge           Charge          ....    0
 Multiplicity           Mult            ....    1
 Number of Electrons    NEL             ....   18
Dispersion correction           -0.001504252
FINAL SINGLE POINT ENERGY      -343.183020013911
Dispersion correction            ... done
Dispersion correction           -0.001504361
FINAL SINGLE POINT ENERGY      -343.183026421818
Dispersion correction            ... done
Dispersion correction           -0.001504506
FINAL SINGLE POINT ENERGY      -343.183026762516
Dispersion correction            ... done
                    ***********************HURRAY********************

CARTESIAN COORDINATES (ANGSTROEM)
---------------------------------
  P     -0.005304   -0.001011    0.576823
  H     -0.656284   -0.990782   -0.200163
  H     -0.527113    1.066272   -0.194756
  H      1.188701   -0.074479   -0.181905

 Multiplicity           Mult            ....    1
 Number of Electrons    NEL             ....   18
 Basis Dimension        Dim             ....  124

ORBITAL ENERGIES
----------------

  NO   OCC          E(Eh)            E(eV)
   0   2.0000     -76.948015     -2093.8619
   1   2.0000      -6.485942      -176.4915
   2   2.0000      -4.636377      -126.1622
   3   2.0000      -4.636360      -126.1618
   4   2.0000      -4.631911      -126.0407
   5   2.0000      -0.627855       -17.0848
   6   2.0000      -0.374634       -10.1943
   7   2.0000      -0.374355       -10.1867
   8   2.0000      -0.267992        -7.2924
   9   0.0000      -0.011464        -0.3119
  10   0.0000       0.005690         0.1548
  11   0.0000       0.005957         0.1621
  12   0.0000       0.028092         0.7644
  13   0.0000       0.028495         0.7754

MULLIKEN ATOMIC CHARGES
-----------------------
   0 P :   -0.080329
   1 H :    0.030760
   2 H :    0.032314
   3 H :    0.017256
Sum of atomic charges:   -0.0000000

LOEWDIN ATOMIC CHARGES
----------------------
   0 P :    1.340762
   1 H :   -0.446835
   2 H :   -0.446831
   3 H :   -0.447095

  Mayer bond orders larger than 0.100000
B(  0-P ,  1-H ) :   0.9616 B(  0-P ,  2-H ) :   0.9648 B(  0-P ,  3-H ) :   0.9538

Dispersion correction           -0.001504503
FINAL SINGLE POINT ENERGY      -343.183026716072

DIPOLE MOMENT
-------------
                                X             Y             Z
Electronic contribution:     -0.01383      -0.00323       1.78354
Nuclear contribution   :      0.01870       0.00356      -2.03323
                        -----------------------------------------
Total Dipole Moment    :      0.00487       0.00033      -0.24969
                        -----------------------------------------
Magnitude (a.u.)       :      0.24974
Magnitude (Debye)      :      0.63478

VIBRATIONAL FREQUENCIES
-----------------------

Scaling factor for frequencies =  1.000000000 (already applied!)

   0:         0.00 cm**-1
   1:         0.00 cm**-1
   2:         0.00 cm**-1
   3:         0.00 cm**-1
   4:         0.00 cm**-1
   5:         0.00 cm**-1
   6:      1024.08 cm**-1
   7:      1148.24 cm**-1
   8:      1149.36 cm**-1
   9:      2410.62 cm**-1
  10:      2413.75 cm**-1
  11:      2414.83 cm**-1

IR SPECTRUM
-----------

 Mode    freq (cm**-1)   T**2         TX         TY         TZ
-------------------------------------------------------------------
   6:      1024.08   24.799499  (  0.062129   0.050335   4.979268)
   7:      1148.24   12.544426  (  0.007420   3.541771  -0.015041)
   8:      1149.36   10.994154  ( -3.308435  -0.127164   0.179556)
   9:      2410.62   35.942090  ( -2.918031   0.007863   5.237091)
  10:      2413.75   56.565351  ( -0.015166   7.520974   0.008175)
  11:      2414.83   53.442523  (  6.956408  -0.046733   2.246938)

--------------------------
THERMOCHEMISTRY AT 298.15K
--------------------------

Temperature         ... 298.15 K
Pressure            ... 1.00 atm
Total Mass          ... 34.00 AMU

Throughout the following assumptions are being made:
  (1) The electronic state is orbitally nondegenerate
  (2) There are no thermally accessible electronically excited states
  (3) Hindered rotations indicated by low frequency modes are not
      treated as such but are treated as vibrations and this may
      cause some error
  (4) All equations used are the standard statistical mechanics
      equations for an ideal gas
  (5) All vibrations are strictly harmonic

freq.    1024.08  E(vib)   ...       0.02
freq.    1148.24  E(vib)   ...       0.01
freq.    1149.36  E(vib)   ...       0.01
freq.    2410.62  E(vib)   ...       0.00
freq.    2413.75  E(vib)   ...       0.00
freq.    2414.83  E(vib)   ...       0.00

------------
INNER ENERGY
------------

The inner energy is: U= E(el) + E(ZPE) + E(vib) + E(rot) + E(trans)
    E(el)   - is the total energy from the electronic structure calculation
              = E(kin-el) + E(nuc-el) + E(el-el) + E(nuc-nuc)
    E(ZPE)  - the the zero temperature vibrational energy from the frequency calculation
    E(vib)  - the the finite temperature correction to E(ZPE) due to population
              of excited vibrational states
    E(rot)  - is the rotational thermal energy
    E(trans)- is the translational thermal energy

Summary of contributions to the inner energy U:
Electronic energy                ...   -343.18302671 Eh
Zero point energy                ...      0.02405949 Eh      15.10 kcal/mol
Thermal vibrational correction   ...      0.00007497 Eh       0.05 kcal/mol
Thermal rotational correction    ...      0.00141627 Eh       0.89 kcal/mol
Thermal translational correction ...      0.00141627 Eh       0.89 kcal/mol
-----------------------------------------------------------------------
Total thermal energy                   -343.15605971 Eh

Summary of corrections to the electronic energy:
(perhaps to be used in another calculation)
Total thermal correction                  0.00290751 Eh       1.82 kcal/mol
Non-thermal (ZPE) correction              0.02405949 Eh      15.10 kcal/mol
-----------------------------------------------------------------------
Total correction                          0.02696700 Eh      16.92 kcal/mol

--------
ENTHALPY
--------

The enthalpy is H = U + kB*T
                kB is Boltzmann's constant
Total free energy                 ...   -343.15605971 Eh
Thermal Enthalpy correction       ...      0.00094421 Eh       0.59 kcal/mol
-----------------------------------------------------------------------
Total Enthalpy                    ...   -343.15511550 Eh

Note: Only C1 symmetry has been detected, increase convergence thresholds
      if your molecule has a higher symmetry. Symmetry factor of 1.0 is
      used for the rotational entropy correction.

Note: Rotational entropy computed according to Herzberg
Infrared and Raman Spectra, Chapter V,1, Van Nostrand Reinhold, 1945
Point Group:  C1, Symmetry Number:   1
Rotational constants in cm-1:     4.473387     4.470407     3.938855

Vibrational entropy computed according to the QRRHO of S. Grimme
Chem.Eur.J. 2012 18 9955

-------
ENTROPY
-------

The entropy contributions are T*S = T*(S(el)+S(vib)+S(rot)+S(trans))
     S(el)   - electronic entropy
     S(vib)  - vibrational entropy
     S(rot)  - rotational entropy
     S(trans)- translational entropy
The entropies will be listed as mutliplied by the temperature to get
units of energy

Electronic entropy                ...      0.00000000 Eh      0.00 kcal/mol
Vibrational entropy               ...      0.00008920 Eh      0.06 kcal/mol
Rotational entropy                ...      0.00744942 Eh      4.67 kcal/mol
Translational entropy             ...      0.01734327 Eh     10.88 kcal/mol
-----------------------------------------------------------------------
Final entropy term                ...      0.02488190 Eh     15.61 kcal/mol

In case the symmetry of your molecule has not been determined correctly
or in case you have a reason to use a different symmetry number we print
out the resulting rotational entropy values for sn=1,12 :
 --------------------------------------------------------
|  sn= 1 | S(rot)=       0.00744942 Eh      4.67 kcal/mol|
|  sn= 2 | S(rot)=       0.00679496 Eh      4.26 kcal/mol|
|  sn= 3 | S(rot)=       0.00641213 Eh      4.02 kcal/mol|
|  sn= 4 | S(rot)=       0.00614051 Eh      3.85 kcal/mol|
|  sn= 5 | S(rot)=       0.00592982 Eh      3.72 kcal/mol|
|  sn= 6 | S(rot)=       0.00575767 Eh      3.61 kcal/mol|
|  sn= 7 | S(rot)=       0.00561213 Eh      3.52 kcal/mol|
|  sn= 8 | S(rot)=       0.00548605 Eh      3.44 kcal/mol|
|  sn= 9 | S(rot)=       0.00537484 Eh      3.37 kcal/mol|
|  sn=10 | S(rot)=       0.00527536 Eh      3.31 kcal/mol|
|  sn=11 | S(rot)=       0.00518537 Eh      3.25 kcal/mol|
|  sn=12 | S(rot)=       0.00510322 Eh      3.20 kcal/mol|
 --------------------------------------------------------

-------------------
GIBBS FREE ENERGY
-------------------

The Gibbs free energy is G = H - T*S

Total enthalpy                    ...   -343.15511550 Eh
Total entropy correction          ...     -0.02488190 Eh    -15.61 kcal/mol
-----------------------------------------------------------------------
Final Gibbs free energy         ...   -343.17999740 Eh

For completeness - the Gibbs free energy minus the electronic energy
G-E(el)                           ...      0.00302931 Eh      1.90 kcal/mol

                             ****ORCA TERMINATED NORMALLY****
TOTAL RUN TIME: 0 days 0 hours 1 minutes 10 seconds 35 msec
