                         Program Version 4.2.0 -  RELEASE  -
|  1> #
|  2> # 29_SiO tpssh/aug-cc-pvt(+d)z
|  3> #
|  4> ! tpssh d3bj aug-cc-pvt(+d)z def2/jk opt xyzfile numfreq
|  5>
|  6> *xyz 0 1
|  7> Si           0.000000077         -0.000000063         -0.754567114
|  8> O           -0.000000077          0.000000063          0.754567114
|  9> *
| 10>
| 11> %pal
| 12> nprocs 24
| 13> end
| 14>
| 15>
| 16>                          ****END OF INPUT****
 Total Charge           Charge          ....    0
 Multiplicity           Mult            ....    1
 Number of Electrons    NEL             ....   22
Dispersion correction           -0.000772896
FINAL SINGLE POINT ENERGY      -364.777828943378
Dispersion correction            ... done
Dispersion correction           -0.000772884
FINAL SINGLE POINT ENERGY      -364.777859476436
Dispersion correction            ... done
Dispersion correction           -0.000772865
FINAL SINGLE POINT ENERGY      -364.777876944044
Dispersion correction            ... done
                    ***********************HURRAY********************

CARTESIAN COORDINATES (ANGSTROEM)
---------------------------------
  Si     0.000000   -0.000000   -0.757993
  O     -0.000000    0.000000    0.757993

 Multiplicity           Mult            ....    1
 Number of Electrons    NEL             ....   22
 Basis Dimension        Dim             ....  101

ORBITAL ENERGIES
----------------

  NO   OCC          E(Eh)            E(eV)
   0   2.0000     -66.036676     -1796.9493
   1   2.0000     -19.045387      -518.2513
   2   2.0000      -5.252704      -142.9333
   3   2.0000      -3.602725       -98.0351
   4   2.0000      -3.602725       -98.0351
   5   2.0000      -3.595180       -97.8298
   6   2.0000      -0.923958       -25.1422
   7   2.0000      -0.423204       -11.5160
   8   2.0000      -0.319797        -8.7021
   9   2.0000      -0.319797        -8.7021
  10   2.0000      -0.298763        -8.1298
  11   0.0000      -0.091949        -2.5020
  12   0.0000      -0.091949        -2.5020
  13   0.0000      -0.003135        -0.0853
  14   0.0000       0.015082         0.4104
  15   0.0000       0.038897         1.0584

MULLIKEN ATOMIC CHARGES
-----------------------
   0 Si:    0.655236
   1 O :   -0.655236
Sum of atomic charges:   -0.0000000

LOEWDIN ATOMIC CHARGES
----------------------
   0 Si:    0.457880
   1 O :   -0.457880

  Mayer bond orders larger than 0.100000
B(  0-Si,  1-O ) :   1.8479

Dispersion correction           -0.000772865
FINAL SINGLE POINT ENERGY      -364.777876917375

DIPOLE MOMENT
-------------
                                X             Y             Z
Electronic contribution:      0.00000      -0.00000      -1.22054
Nuclear contribution   :     -0.00000       0.00000       0.04562
                        -----------------------------------------
Total Dipole Moment    :      0.00000      -0.00000      -1.17492
                        -----------------------------------------
Magnitude (a.u.)       :      1.17492
Magnitude (Debye)      :      2.98641

VIBRATIONAL FREQUENCIES
-----------------------

Scaling factor for frequencies =  1.000000000 (already applied!)

   0:         0.00 cm**-1
   1:         0.00 cm**-1
   2:         0.00 cm**-1
   3:         0.00 cm**-1
   4:         0.00 cm**-1
   5:      1239.70 cm**-1

IR SPECTRUM
-----------

 Mode    freq (cm**-1)   T**2         TX         TY         TZ
-------------------------------------------------------------------
   5:      1239.70   47.827786  ( -0.000003   0.000001   6.915764)

--------------------------
THERMOCHEMISTRY AT 298.15K
--------------------------

Temperature         ... 298.15 K
Pressure            ... 1.00 atm
Total Mass          ... 44.09 AMU
The molecule is recognized as being linear

Throughout the following assumptions are being made:
  (1) The electronic state is orbitally nondegenerate
  (2) There are no thermally accessible electronically excited states
  (3) Hindered rotations indicated by low frequency modes are not
      treated as such but are treated as vibrations and this may
      cause some error
  (4) All equations used are the standard statistical mechanics
      equations for an ideal gas
  (5) All vibrations are strictly harmonic

freq.    1239.70  E(vib)   ...       0.01

------------
INNER ENERGY
------------

The inner energy is: U= E(el) + E(ZPE) + E(vib) + E(rot) + E(trans)
    E(el)   - is the total energy from the electronic structure calculation
              = E(kin-el) + E(nuc-el) + E(el-el) + E(nuc-nuc)
    E(ZPE)  - the the zero temperature vibrational energy from the frequency calculation
    E(vib)  - the the finite temperature correction to E(ZPE) due to population
              of excited vibrational states
    E(rot)  - is the rotational thermal energy
    E(trans)- is the translational thermal energy

Summary of contributions to the inner energy U:
Electronic energy                ...   -364.77787692 Eh
Zero point energy                ...      0.00282424 Eh       1.77 kcal/mol
Thermal vibrational correction   ...      0.00001429 Eh       0.01 kcal/mol
Thermal rotational correction    ...      0.00094418 Eh       0.59 kcal/mol
Thermal translational correction ...      0.00141627 Eh       0.89 kcal/mol
-----------------------------------------------------------------------
Total thermal energy                   -364.77267794 Eh

Summary of corrections to the electronic energy:
(perhaps to be used in another calculation)
Total thermal correction                  0.00237474 Eh       1.49 kcal/mol
Non-thermal (ZPE) correction              0.00282424 Eh       1.77 kcal/mol
-----------------------------------------------------------------------
Total correction                          0.00519898 Eh       3.26 kcal/mol

--------
ENTHALPY
--------

The enthalpy is H = U + kB*T
                kB is Boltzmann's constant
Total free energy                 ...   -364.77267794 Eh
Thermal Enthalpy correction       ...      0.00094421 Eh       0.59 kcal/mol
-----------------------------------------------------------------------
Total Enthalpy                    ...   -364.77173373 Eh

Note: Rotational entropy computed according to Herzberg
Infrared and Raman Spectra, Chapter V,1, Van Nostrand Reinhold, 1945
Point Group:  Cinfv, Symmetry Number:   1
Rotational constants in cm-1:     0.000000     0.719639     0.719639

Vibrational entropy computed according to the QRRHO of S. Grimme
Chem.Eur.J. 2012 18 9955

-------
ENTROPY
-------

The entropy contributions are T*S = T*(S(el)+S(vib)+S(rot)+S(trans))
     S(el)   - electronic entropy
     S(vib)  - vibrational entropy
     S(rot)  - rotational entropy
     S(trans)- translational entropy
The entropies will be listed as mutliplied by the temperature to get
units of energy

Electronic entropy                ...      0.00000000 Eh      0.00 kcal/mol
Vibrational entropy               ...      0.00001668 Eh      0.01 kcal/mol
Rotational entropy                ...      0.00629090 Eh      3.95 kcal/mol
Translational entropy             ...      0.01771124 Eh     11.11 kcal/mol
-----------------------------------------------------------------------
Final entropy term                ...      0.02401883 Eh     15.07 kcal/mol

In case the symmetry of your molecule has not been determined correctly
or in case you have a reason to use a different symmetry number we print
out the resulting rotational entropy values for sn=1,12 :
 --------------------------------------------------------
|  sn= 1 | S(rot)=             -nan Eh      -nan kcal/mol|
|  sn= 2 | S(rot)=             -nan Eh      -nan kcal/mol|
|  sn= 3 | S(rot)=             -nan Eh      -nan kcal/mol|
|  sn= 4 | S(rot)=             -nan Eh      -nan kcal/mol|
|  sn= 5 | S(rot)=             -nan Eh      -nan kcal/mol|
|  sn= 6 | S(rot)=             -nan Eh      -nan kcal/mol|
|  sn= 7 | S(rot)=             -nan Eh      -nan kcal/mol|
|  sn= 8 | S(rot)=             -nan Eh      -nan kcal/mol|
|  sn= 9 | S(rot)=             -nan Eh      -nan kcal/mol|
|  sn=10 | S(rot)=             -nan Eh      -nan kcal/mol|
|  sn=11 | S(rot)=             -nan Eh      -nan kcal/mol|
|  sn=12 | S(rot)=             -nan Eh      -nan kcal/mol|
 --------------------------------------------------------

-------------------
GIBBS FREE ENERGY
-------------------

The Gibbs free energy is G = H - T*S

Total enthalpy                    ...   -364.77173373 Eh
Total entropy correction          ...     -0.02401883 Eh    -15.07 kcal/mol
-----------------------------------------------------------------------
Final Gibbs free energy         ...   -364.79575256 Eh

For completeness - the Gibbs free energy minus the electronic energy
G-E(el)                           ...     -0.01787564 Eh    -11.22 kcal/mol

                             ****ORCA TERMINATED NORMALLY****
TOTAL RUN TIME: 0 days 0 hours 0 minutes 57 seconds 36 msec
