                         Program Version 4.2.0 -  RELEASE  -
|  1> #
|  2> # 30_SO2 tpssh/aug-cc-pvt(+d)z
|  3> #
|  4> ! tpssh d3bj aug-cc-pvt(+d)z def2/jk opt xyzfile numfreq
|  5>
|  6> *xyz 0 1
|  7> S           -0.001418646          0.484606293         -0.000000013
|  8> O            1.234874832         -0.238706427         -0.000000091
|  9> O           -1.233456186         -0.245899866          0.000000104
| 10> *
| 11>
| 12> %pal
| 13> nprocs 24
| 14> end
| 15>
| 16>
| 17>                          ****END OF INPUT****
 Total Charge           Charge          ....    0
 Multiplicity           Mult            ....    1
 Number of Electrons    NEL             ....   32
Dispersion correction           -0.001573736
FINAL SINGLE POINT ENERGY      -548.727902254581
Dispersion correction            ... done
Dispersion correction           -0.001573011
FINAL SINGLE POINT ENERGY      -548.728110290471
Dispersion correction            ... done
Dispersion correction           -0.001572471
FINAL SINGLE POINT ENERGY      -548.728160148337
Dispersion correction            ... done
Dispersion correction           -0.001572481
FINAL SINGLE POINT ENERGY      -548.728160428029
Dispersion correction            ... done
                    ***********************HURRAY********************

CARTESIAN COORDINATES (ANGSTROEM)
---------------------------------
  S     -0.001424    0.487119   -0.000000
  O      1.245234   -0.239932   -0.000000
  O     -1.243810   -0.247187    0.000000

 Multiplicity           Mult            ....    1
 Number of Electrons    NEL             ....   32
 Basis Dimension        Dim             ....  147

ORBITAL ENERGIES
----------------

  NO   OCC          E(Eh)            E(eV)
   0   2.0000     -88.922019     -2419.6912
   1   2.0000     -19.118851      -520.2504
   2   2.0000     -19.118834      -520.2499
   3   2.0000      -8.026997      -218.4257
   4   2.0000      -5.978855      -162.6929
   5   2.0000      -5.976741      -162.6354
   6   2.0000      -5.972380      -162.5167
   7   2.0000      -1.123048       -30.5597
   8   2.0000      -1.034697       -28.1555
   9   2.0000      -0.624614       -16.9966
  10   2.0000      -0.481289       -13.0965
  11   2.0000      -0.478657       -13.0249
  12   2.0000      -0.476918       -12.9776
  13   2.0000      -0.367176        -9.9914
  14   2.0000      -0.349106        -9.4997
  15   2.0000      -0.322905        -8.7867
  16   0.0000      -0.150152        -4.0858
  17   0.0000      -0.004688        -0.1276
  18   0.0000       0.018466         0.5025
  19   0.0000       0.020699         0.5632
  20   0.0000       0.038157         1.0383

MULLIKEN ATOMIC CHARGES
-----------------------
   0 S :    1.071181
   1 O :   -0.535578
   2 O :   -0.535604
Sum of atomic charges:    0.0000000

LOEWDIN ATOMIC CHARGES
----------------------
   0 S :    0.374821
   1 O :   -0.187412
   2 O :   -0.187409

  Mayer bond orders larger than 0.100000
B(  0-S ,  1-O ) :   1.7726 B(  0-S ,  2-O ) :   1.7725 B(  1-O ,  2-O ) :   0.2426

Dispersion correction           -0.001572504
FINAL SINGLE POINT ENERGY      -548.728160672857

DIPOLE MOMENT
-------------
                                X             Y             Z
Electronic contribution:     -0.00192       0.64589      -0.00000
Nuclear contribution   :      0.00006      -0.02138       0.00000
                        -----------------------------------------
Total Dipole Moment    :     -0.00185       0.62451      -0.00000
                        -----------------------------------------
Magnitude (a.u.)       :      0.62451
Magnitude (Debye)      :      1.58739

VIBRATIONAL FREQUENCIES
-----------------------

Scaling factor for frequencies =  1.000000000 (already applied!)

   0:         0.00 cm**-1
   1:         0.00 cm**-1
   2:         0.00 cm**-1
   3:         0.00 cm**-1
   4:         0.00 cm**-1
   5:         0.00 cm**-1
   6:       507.56 cm**-1
   7:      1161.14 cm**-1
   8:      1359.75 cm**-1

IR SPECTRUM
-----------

 Mode    freq (cm**-1)   T**2         TX         TY         TZ
-------------------------------------------------------------------
   6:       507.56   26.121837  ( -0.016673   5.110925  -0.000000)
   7:      1161.14   27.315613  ( -0.020804   5.226393  -0.000000)
   8:      1359.75  203.267505  (-14.257126  -0.043314   0.000001)

--------------------------
THERMOCHEMISTRY AT 298.15K
--------------------------

Temperature         ... 298.15 K
Pressure            ... 1.00 atm
Total Mass          ... 64.06 AMU

Throughout the following assumptions are being made:
  (1) The electronic state is orbitally nondegenerate
  (2) There are no thermally accessible electronically excited states
  (3) Hindered rotations indicated by low frequency modes are not
      treated as such but are treated as vibrations and this may
      cause some error
  (4) All equations used are the standard statistical mechanics
      equations for an ideal gas
  (5) All vibrations are strictly harmonic

freq.     507.56  E(vib)   ...       0.14
freq.    1161.14  E(vib)   ...       0.01
freq.    1359.75  E(vib)   ...       0.01

------------
INNER ENERGY
------------

The inner energy is: U= E(el) + E(ZPE) + E(vib) + E(rot) + E(trans)
    E(el)   - is the total energy from the electronic structure calculation
              = E(kin-el) + E(nuc-el) + E(el-el) + E(nuc-nuc)
    E(ZPE)  - the the zero temperature vibrational energy from the frequency calculation
    E(vib)  - the the finite temperature correction to E(ZPE) due to population
              of excited vibrational states
    E(rot)  - is the rotational thermal energy
    E(trans)- is the translational thermal energy

Summary of contributions to the inner energy U:
Electronic energy                ...   -548.72816068 Eh
Zero point energy                ...      0.00689932 Eh       4.33 kcal/mol
Thermal vibrational correction   ...      0.00024693 Eh       0.15 kcal/mol
Thermal rotational correction    ...      0.00141627 Eh       0.89 kcal/mol
Thermal translational correction ...      0.00141627 Eh       0.89 kcal/mol
-----------------------------------------------------------------------
Total thermal energy                   -548.71818188 Eh

Summary of corrections to the electronic energy:
(perhaps to be used in another calculation)
Total thermal correction                  0.00307947 Eh       1.93 kcal/mol
Non-thermal (ZPE) correction              0.00689932 Eh       4.33 kcal/mol
-----------------------------------------------------------------------
Total correction                          0.00997880 Eh       6.26 kcal/mol

--------
ENTHALPY
--------

The enthalpy is H = U + kB*T
                kB is Boltzmann's constant
Total free energy                 ...   -548.71818188 Eh
Thermal Enthalpy correction       ...      0.00094421 Eh       0.59 kcal/mol
-----------------------------------------------------------------------
Total Enthalpy                    ...   -548.71723767 Eh

Note: Rotational entropy computed according to Herzberg
Infrared and Raman Spectra, Chapter V,1, Van Nostrand Reinhold, 1945
Point Group:  Cs, Symmetry Number:   1
Rotational constants in cm-1:     1.971643     0.340146     0.290098

Vibrational entropy computed according to the QRRHO of S. Grimme
Chem.Eur.J. 2012 18 9955

-------
ENTROPY
-------

The entropy contributions are T*S = T*(S(el)+S(vib)+S(rot)+S(trans))
     S(el)   - electronic entropy
     S(vib)  - vibrational entropy
     S(rot)  - rotational entropy
     S(trans)- translational entropy
The entropies will be listed as mutliplied by the temperature to get
units of energy

Electronic entropy                ...      0.00000000 Eh      0.00 kcal/mol
Vibrational entropy               ...      0.00033746 Eh      0.21 kcal/mol
Rotational entropy                ...      0.01028364 Eh      6.45 kcal/mol
Translational entropy             ...      0.01824046 Eh     11.45 kcal/mol
-----------------------------------------------------------------------
Final entropy term                ...      0.02886157 Eh     18.11 kcal/mol

In case the symmetry of your molecule has not been determined correctly
or in case you have a reason to use a different symmetry number we print
out the resulting rotational entropy values for sn=1,12 :
 --------------------------------------------------------
|  sn= 1 | S(rot)=       0.01028364 Eh      6.45 kcal/mol|
|  sn= 2 | S(rot)=       0.00962919 Eh      6.04 kcal/mol|
|  sn= 3 | S(rot)=       0.00924636 Eh      5.80 kcal/mol|
|  sn= 4 | S(rot)=       0.00897473 Eh      5.63 kcal/mol|
|  sn= 5 | S(rot)=       0.00876404 Eh      5.50 kcal/mol|
|  sn= 6 | S(rot)=       0.00859190 Eh      5.39 kcal/mol|
|  sn= 7 | S(rot)=       0.00844635 Eh      5.30 kcal/mol|
|  sn= 8 | S(rot)=       0.00832028 Eh      5.22 kcal/mol|
|  sn= 9 | S(rot)=       0.00820907 Eh      5.15 kcal/mol|
|  sn=10 | S(rot)=       0.00810959 Eh      5.09 kcal/mol|
|  sn=11 | S(rot)=       0.00801960 Eh      5.03 kcal/mol|
|  sn=12 | S(rot)=       0.00793744 Eh      4.98 kcal/mol|
 --------------------------------------------------------

-------------------
GIBBS FREE ENERGY
-------------------

The Gibbs free energy is G = H - T*S

Total enthalpy                    ...   -548.71723767 Eh
Total entropy correction          ...     -0.02886157 Eh    -18.11 kcal/mol
-----------------------------------------------------------------------
Final Gibbs free energy         ...   -548.74609924 Eh

For completeness - the Gibbs free energy minus the electronic energy
G-E(el)                           ...     -0.01793856 Eh    -11.26 kcal/mol

                             ****ORCA TERMINATED NORMALLY****
TOTAL RUN TIME: 0 days 0 hours 2 minutes 46 seconds 420 msec
