                         Program Version 4.2.0 -  RELEASE  -
|  1> #
|  2> # 31_CH3OH tpssh/aug-cc-pvt(+d)z
|  3> #
|  4> ! tpssh d3bj aug-cc-pvt(+d)z def2/jk opt xyzfile numfreq
|  5>
|  6> *xyz 0 1
|  7> C           -0.363402325         -0.041285362         -0.013690119
|  8> O            0.999643168         -0.347047081         -0.277037073
|  9> H           -0.526683527          1.037540752          0.098676465
| 10> H           -0.619974523         -0.530259474          0.927500411
| 11> H           -1.027781749         -0.424805686         -0.797699235
| 12> H            1.254756116          0.072031989         -1.103555394
| 13> *
| 14>
| 15> %pal
| 16> nprocs 24
| 17> end
| 18>
| 19>
| 20>                          ****END OF INPUT****
 Total Charge           Charge          ....    0
 Multiplicity           Mult            ....    1
 Number of Electrons    NEL             ....   18
Dispersion correction           -0.002007404
FINAL SINGLE POINT ENERGY      -115.775655653556
Dispersion correction            ... done
Dispersion correction           -0.002007285
FINAL SINGLE POINT ENERGY      -115.775671991239
Dispersion correction            ... done
Dispersion correction           -0.002007312
FINAL SINGLE POINT ENERGY      -115.775673790706
Dispersion correction            ... done
Dispersion correction           -0.002007378
FINAL SINGLE POINT ENERGY      -115.775673451199
Dispersion correction            ... done
                    ***********************HURRAY********************

CARTESIAN COORDINATES (ANGSTROEM)
---------------------------------
  C     -0.366896   -0.039506   -0.013124
  O      1.002170   -0.346329   -0.273577
  H     -0.528507    1.038159    0.099719
  H     -0.617121   -0.531490    0.925474
  H     -1.026927   -0.423623   -0.798577
  H      1.253838    0.068965   -1.105720

 Multiplicity           Mult            ....    1
 Number of Electrons    NEL             ....   18
 Basis Dimension        Dim             ....  184

ORBITAL ENERGIES
----------------

  NO   OCC          E(Eh)            E(eV)
   0   2.0000     -19.054477      -518.4987
   1   2.0000     -10.156927      -276.3840
   2   2.0000      -0.996592       -27.1187
   3   2.0000      -0.666579       -18.1385
   4   2.0000      -0.489456       -13.3188
   5   2.0000      -0.423584       -11.5263
   6   2.0000      -0.408570       -11.1178
   7   2.0000      -0.323340        -8.7985
   8   2.0000      -0.260130        -7.0785
   9   0.0000      -0.011825        -0.3218
  10   0.0000       0.007983         0.2172
  11   0.0000       0.024241         0.6596
  12   0.0000       0.028458         0.7744
  13   0.0000       0.059554         1.6205

MULLIKEN ATOMIC CHARGES
-----------------------
   0 C :   -0.140630
   1 O :   -0.435914
   2 H :    0.136977
   3 H :    0.157857
   4 H :    0.137552
   5 H :    0.144158
Sum of atomic charges:    0.0000000

LOEWDIN ATOMIC CHARGES
----------------------
   0 C :    0.311242
   1 O :    0.789289
   2 H :   -0.194134
   3 H :   -0.202016
   4 H :   -0.194220
   5 H :   -0.510161

  Mayer bond orders larger than 0.100000
B(  0-C ,  1-O ) :   0.8177 B(  0-C ,  2-H ) :   0.9587 B(  0-C ,  3-H ) :   0.9652
B(  0-C ,  4-H ) :   0.9802 B(  1-O ,  5-H ) :   0.9791

Dispersion correction           -0.002007419
FINAL SINGLE POINT ENERGY      -115.775673282276

DIPOLE MOMENT
-------------
                                X             Y             Z
Electronic contribution:      1.72685      -0.47290      -0.18547
Nuclear contribution   :     -2.10530       0.82677      -0.19143
                        -----------------------------------------
Total Dipole Moment    :     -0.37845       0.35387      -0.37690
                        -----------------------------------------
Magnitude (a.u.)       :      0.64071
Magnitude (Debye)      :      1.62855

VIBRATIONAL FREQUENCIES
-----------------------

Scaling factor for frequencies =  1.000000000 (already applied!)

   0:         0.00 cm**-1
   1:         0.00 cm**-1
   2:         0.00 cm**-1
   3:         0.00 cm**-1
   4:         0.00 cm**-1
   5:         0.00 cm**-1
   6:       300.90 cm**-1
   7:      1029.87 cm**-1
   8:      1071.16 cm**-1
   9:      1168.15 cm**-1
  10:      1369.06 cm**-1
  11:      1477.21 cm**-1
  12:      1506.91 cm**-1
  13:      1517.27 cm**-1
  14:      2990.36 cm**-1
  15:      3037.78 cm**-1
  16:      3113.45 cm**-1
  17:      3792.90 cm**-1

IR SPECTRUM
-----------

 Mode    freq (cm**-1)   T**2         TX         TY         TZ
-------------------------------------------------------------------
   6:       300.90   98.677696  ( -2.773367  -8.094283  -5.046654)
   7:      1029.87  116.689453  (-10.381211   2.383545   1.799617)
   8:      1071.16    1.223839  ( -0.889049   0.516637  -0.408066)
   9:      1168.15    0.642440  (  0.124674   0.682509   0.401345)
  10:      1369.06   21.503288  ( -4.352340   1.587268  -0.202491)
  11:      1477.21    3.993168  ( -1.905385   0.441397   0.409687)
  12:      1506.91    2.220665  ( -0.377749  -1.204853  -0.791392)
  13:      1517.27    4.774106  ( -0.486866  -0.927319   1.917589)
  14:      2990.36   62.729895  (  7.402620  -2.749351   0.610066)
  15:      3037.78   55.820931  ( -1.939593  -6.221639  -3.653781)
  16:      3113.45   25.975202  (  0.709829   2.541346  -4.360379)
  17:      3792.90   23.031316  ( -2.886385  -1.149342   3.657747)

--------------------------
THERMOCHEMISTRY AT 298.15K
--------------------------

Temperature         ... 298.15 K
Pressure            ... 1.00 atm
Total Mass          ... 32.04 AMU

Throughout the following assumptions are being made:
  (1) The electronic state is orbitally nondegenerate
  (2) There are no thermally accessible electronically excited states
  (3) Hindered rotations indicated by low frequency modes are not
      treated as such but are treated as vibrations and this may
      cause some error
  (4) All equations used are the standard statistical mechanics
      equations for an ideal gas
  (5) All vibrations are strictly harmonic

freq.     300.90  E(vib)   ...       0.26
freq.    1029.87  E(vib)   ...       0.02
freq.    1071.16  E(vib)   ...       0.02
freq.    1168.15  E(vib)   ...       0.01
freq.    1369.06  E(vib)   ...       0.01
freq.    1477.21  E(vib)   ...       0.00
freq.    1506.91  E(vib)   ...       0.00
freq.    1517.27  E(vib)   ...       0.00
freq.    2990.36  E(vib)   ...       0.00
freq.    3037.78  E(vib)   ...       0.00
freq.    3113.45  E(vib)   ...       0.00
freq.    3792.90  E(vib)   ...       0.00

------------
INNER ENERGY
------------

The inner energy is: U= E(el) + E(ZPE) + E(vib) + E(rot) + E(trans)
    E(el)   - is the total energy from the electronic structure calculation
              = E(kin-el) + E(nuc-el) + E(el-el) + E(nuc-nuc)
    E(ZPE)  - the the zero temperature vibrational energy from the frequency calculation
    E(vib)  - the the finite temperature correction to E(ZPE) due to population
              of excited vibrational states
    E(rot)  - is the rotational thermal energy
    E(trans)- is the translational thermal energy

Summary of contributions to the inner energy U:
Electronic energy                ...   -115.77567329 Eh
Zero point energy                ...      0.05097405 Eh      31.99 kcal/mol
Thermal vibrational correction   ...      0.00052205 Eh       0.33 kcal/mol
Thermal rotational correction    ...      0.00141627 Eh       0.89 kcal/mol
Thermal translational correction ...      0.00141627 Eh       0.89 kcal/mol
-----------------------------------------------------------------------
Total thermal energy                   -115.72134465 Eh

Summary of corrections to the electronic energy:
(perhaps to be used in another calculation)
Total thermal correction                  0.00335459 Eh       2.11 kcal/mol
Non-thermal (ZPE) correction              0.05097405 Eh      31.99 kcal/mol
-----------------------------------------------------------------------
Total correction                          0.05432864 Eh      34.09 kcal/mol

--------
ENTHALPY
--------

The enthalpy is H = U + kB*T
                kB is Boltzmann's constant
Total free energy                 ...   -115.72134465 Eh
Thermal Enthalpy correction       ...      0.00094421 Eh       0.59 kcal/mol
-----------------------------------------------------------------------
Total Enthalpy                    ...   -115.72040044 Eh

Note: Only C1 symmetry has been detected, increase convergence thresholds
      if your molecule has a higher symmetry. Symmetry factor of 1.0 is
      used for the rotational entropy correction.

Note: Rotational entropy computed according to Herzberg
Infrared and Raman Spectra, Chapter V,1, Van Nostrand Reinhold, 1945
Point Group:  C1, Symmetry Number:   1
Rotational constants in cm-1:     4.259830     0.821147     0.792592

Vibrational entropy computed according to the QRRHO of S. Grimme
Chem.Eur.J. 2012 18 9955

-------
ENTROPY
-------

The entropy contributions are T*S = T*(S(el)+S(vib)+S(rot)+S(trans))
     S(el)   - electronic entropy
     S(vib)  - vibrational entropy
     S(rot)  - rotational entropy
     S(trans)- translational entropy
The entropies will be listed as mutliplied by the temperature to get
units of energy

Electronic entropy                ...      0.00000000 Eh      0.00 kcal/mol
Vibrational entropy               ...      0.00079456 Eh      0.50 kcal/mol
Rotational entropy                ...      0.00902941 Eh      5.67 kcal/mol
Translational entropy             ...      0.01725935 Eh     10.83 kcal/mol
-----------------------------------------------------------------------
Final entropy term                ...      0.02708332 Eh     17.00 kcal/mol

In case the symmetry of your molecule has not been determined correctly
or in case you have a reason to use a different symmetry number we print
out the resulting rotational entropy values for sn=1,12 :
 --------------------------------------------------------
|  sn= 1 | S(rot)=       0.00902941 Eh      5.67 kcal/mol|
|  sn= 2 | S(rot)=       0.00837495 Eh      5.26 kcal/mol|
|  sn= 3 | S(rot)=       0.00799212 Eh      5.02 kcal/mol|
|  sn= 4 | S(rot)=       0.00772049 Eh      4.84 kcal/mol|
|  sn= 5 | S(rot)=       0.00750981 Eh      4.71 kcal/mol|
|  sn= 6 | S(rot)=       0.00733766 Eh      4.60 kcal/mol|
|  sn= 7 | S(rot)=       0.00719211 Eh      4.51 kcal/mol|
|  sn= 8 | S(rot)=       0.00706604 Eh      4.43 kcal/mol|
|  sn= 9 | S(rot)=       0.00695483 Eh      4.36 kcal/mol|
|  sn=10 | S(rot)=       0.00685535 Eh      4.30 kcal/mol|
|  sn=11 | S(rot)=       0.00676536 Eh      4.25 kcal/mol|
|  sn=12 | S(rot)=       0.00668320 Eh      4.19 kcal/mol|
 --------------------------------------------------------

-------------------
GIBBS FREE ENERGY
-------------------

The Gibbs free energy is G = H - T*S

Total enthalpy                    ...   -115.72040044 Eh
Total entropy correction          ...     -0.02708332 Eh    -17.00 kcal/mol
-----------------------------------------------------------------------
Final Gibbs free energy         ...   -115.74748376 Eh

For completeness - the Gibbs free energy minus the electronic energy
G-E(el)                           ...      0.02818953 Eh     17.69 kcal/mol

                             ****ORCA TERMINATED NORMALLY****
TOTAL RUN TIME: 0 days 0 hours 2 minutes 53 seconds 340 msec
