                         Program Version 4.2.0 -  RELEASE  -
|  1> #
|  2> # 32_S2 tpssh/aug-cc-pvt(+d)z
|  3> #
|  4> ! tpssh d3bj aug-cc-pvt(+d)z def2/jk opt xyzfile numfreq
|  5>
|  6> *xyz 0 3
|  7> S           -0.000000000         -0.000000000          0.005070157
|  8> S            0.000000000          0.000000000          1.891814433
|  9> *
| 10>
| 11> %pal
| 12> nprocs 24
| 13> end
| 14>
| 15>
| 16>                          ****END OF INPUT****
 Total Charge           Charge          ....    0
 Multiplicity           Mult            ....    3
 Number of Electrons    NEL             ....   32
Dispersion correction           -0.001584977
FINAL SINGLE POINT ENERGY      -796.445857007370
Dispersion correction            ... done
Dispersion correction           -0.001584867
FINAL SINGLE POINT ENERGY      -796.445897989772
Dispersion correction            ... done
Dispersion correction           -0.001584730
FINAL SINGLE POINT ENERGY      -796.445914494695
Dispersion correction            ... done
                    ***********************HURRAY********************

CARTESIAN COORDINATES (ANGSTROEM)
---------------------------------
  S      0.000000    0.000000   -0.000117
  S      0.000000    0.000000    1.897001

 Multiplicity           Mult            ....    3
 Number of Electrons    NEL             ....   32
 Basis Dimension        Dim             ....  110

ORBITAL ENERGIES
----------------
                 SPIN UP ORBITALS
  NO   OCC          E(Eh)            E(eV)
   0   1.0000     -88.799725     -2416.3634
   1   1.0000     -88.799722     -2416.3633
   2   1.0000      -7.920233      -215.5205
   3   1.0000      -7.920065      -215.5159
   4   1.0000      -5.869513      -159.7176
   5   1.0000      -5.869410      -159.7148
   6   1.0000      -5.869410      -159.7148
   7   1.0000      -5.869349      -159.7131
   8   1.0000      -5.869349      -159.7131
   9   1.0000      -5.868734      -159.6964
  10   1.0000      -0.817748       -22.2521
  11   1.0000      -0.618060       -16.8183
  12   1.0000      -0.389098       -10.5879
  13   1.0000      -0.367756       -10.0072
  14   1.0000      -0.367756       -10.0072
  15   1.0000      -0.238498        -6.4899
  16   1.0000      -0.238498        -6.4899
  17   0.0000      -0.030720        -0.8359
  18   0.0000       0.021097         0.5741
  19   0.0000       0.041334         1.1247
  20   0.0000       0.041334         1.1247
  21   0.0000       0.044895         1.2217

                 SPIN DOWN ORBITALS
  NO   OCC          E(Eh)            E(eV)
   0   1.0000     -88.794013     -2416.2079
   1   1.0000     -88.794010     -2416.2078
   2   1.0000      -7.914945      -215.3766
   3   1.0000      -7.914764      -215.3717
   4   1.0000      -5.866510      -159.6359
   5   1.0000      -5.865724      -159.6145
   6   1.0000      -5.858700      -159.4233
   7   1.0000      -5.858700      -159.4233
   8   1.0000      -5.858635      -159.4216
   9   1.0000      -5.858635      -159.4216
  10   1.0000      -0.790909       -21.5217
  11   1.0000      -0.561970       -15.2920
  12   1.0000      -0.367054        -9.9880
  13   1.0000      -0.321286        -8.7426
  14   1.0000      -0.321286        -8.7426
  15   0.0000      -0.150648        -4.0993
  16   0.0000      -0.150648        -4.0993
  17   0.0000      -0.014898        -0.4054
  18   0.0000       0.028543         0.7767
  19   0.0000       0.047738         1.2990

MULLIKEN ATOMIC CHARGES AND SPIN POPULATIONS
--------------------------------------------
   0 S :   -0.000000    1.000000
   1 S :    0.000000    1.000000
Sum of atomic charges         :   -0.0000000

LOEWDIN ATOMIC CHARGES AND SPIN POPULATIONS
-------------------------------------------
   0 S :   -0.000000    1.000000
   1 S :    0.000000    1.000000

  Mayer bond orders larger than 0.100000
B(  0-S ,  1-S ) :   1.9001

Dispersion correction           -0.001584726
FINAL SINGLE POINT ENERGY      -796.445914442546

DIPOLE MOMENT
-------------
                                X             Y             Z
Electronic contribution:     -0.00000      -0.00000       0.00000
Nuclear contribution   :      0.00000       0.00000       0.00000
                        -----------------------------------------
Total Dipole Moment    :     -0.00000      -0.00000       0.00000
                        -----------------------------------------
Magnitude (a.u.)       :      0.00000
Magnitude (Debye)      :      0.00000

VIBRATIONAL FREQUENCIES
-----------------------

Scaling factor for frequencies =  1.000000000 (already applied!)

   0:         0.00 cm**-1
   1:         0.00 cm**-1
   2:         0.00 cm**-1
   3:         0.00 cm**-1
   4:         0.00 cm**-1
   5:       723.23 cm**-1

IR SPECTRUM
-----------

 Mode    freq (cm**-1)   T**2         TX         TY         TZ
-------------------------------------------------------------------
   5:       723.23    0.000000  (  0.000000   0.000000   0.000000)

--------------------------
THERMOCHEMISTRY AT 298.15K
--------------------------

Temperature         ... 298.15 K
Pressure            ... 1.00 atm
Total Mass          ... 64.12 AMU
The molecule is recognized as being linear

Throughout the following assumptions are being made:
  (1) The electronic state is orbitally nondegenerate
      but the spin degeneracy is treated
  (2) There are no thermally accessible electronically excited states
  (3) Hindered rotations indicated by low frequency modes are not
      treated as such but are treated as vibrations and this may
      cause some error
  (4) All equations used are the standard statistical mechanics
      equations for an ideal gas
  (5) All vibrations are strictly harmonic

freq.     723.23  E(vib)   ...       0.07

------------
INNER ENERGY
------------

The inner energy is: U= E(el) + E(ZPE) + E(vib) + E(rot) + E(trans)
    E(el)   - is the total energy from the electronic structure calculation
              = E(kin-el) + E(nuc-el) + E(el-el) + E(nuc-nuc)
    E(ZPE)  - the the zero temperature vibrational energy from the frequency calculation
    E(vib)  - the the finite temperature correction to E(ZPE) due to population
              of excited vibrational states
    E(rot)  - is the rotational thermal energy
    E(trans)- is the translational thermal energy

Summary of contributions to the inner energy U:
Electronic energy                ...   -796.44591458 Eh
Zero point energy                ...      0.00164765 Eh       1.03 kcal/mol
Thermal vibrational correction   ...      0.00010367 Eh       0.07 kcal/mol
Thermal rotational correction    ...      0.00094418 Eh       0.59 kcal/mol
Thermal translational correction ...      0.00141627 Eh       0.89 kcal/mol
-----------------------------------------------------------------------
Total thermal energy                   -796.44180281 Eh

Summary of corrections to the electronic energy:
(perhaps to be used in another calculation)
Total thermal correction                  0.00246412 Eh       1.55 kcal/mol
Non-thermal (ZPE) correction              0.00164765 Eh       1.03 kcal/mol
-----------------------------------------------------------------------
Total correction                          0.00411177 Eh       2.58 kcal/mol

--------
ENTHALPY
--------

The enthalpy is H = U + kB*T
                kB is Boltzmann's constant
Total free energy                 ...   -796.44180281 Eh
Thermal Enthalpy correction       ...      0.00094421 Eh       0.59 kcal/mol
-----------------------------------------------------------------------
Total Enthalpy                    ...   -796.44085860 Eh

Note: Rotational entropy computed according to Herzberg
Infrared and Raman Spectra, Chapter V,1, Van Nostrand Reinhold, 1945
Point Group:  Dinfh, Symmetry Number:   2
Rotational constants in cm-1:     0.000000     0.292196     0.292196

Vibrational entropy computed according to the QRRHO of S. Grimme
Chem.Eur.J. 2012 18 9955

-------
ENTROPY
-------

The entropy contributions are T*S = T*(S(el)+S(vib)+S(rot)+S(trans))
     S(el)   - electronic entropy
     S(vib)  - vibrational entropy
     S(rot)  - rotational entropy
     S(trans)- translational entropy
The entropies will be listed as mutliplied by the temperature to get
units of energy

Electronic entropy                ...      0.00103729 Eh      0.65 kcal/mol
Vibrational entropy               ...      0.00013302 Eh      0.08 kcal/mol
Rotational entropy                ...      0.00648746 Eh      4.07 kcal/mol
Translational entropy             ...      0.01824183 Eh     11.45 kcal/mol
-----------------------------------------------------------------------
Final entropy term                ...      0.02589960 Eh     16.25 kcal/mol

In case the symmetry of your molecule has not been determined correctly
or in case you have a reason to use a different symmetry number we print
out the resulting rotational entropy values for sn=1,12 :
 --------------------------------------------------------
|  sn= 1 | S(rot)=             -inf Eh      -inf kcal/mol|
|  sn= 2 | S(rot)=             -inf Eh      -inf kcal/mol|
|  sn= 3 | S(rot)=             -inf Eh      -inf kcal/mol|
|  sn= 4 | S(rot)=             -inf Eh      -inf kcal/mol|
|  sn= 5 | S(rot)=             -inf Eh      -inf kcal/mol|
|  sn= 6 | S(rot)=             -inf Eh      -inf kcal/mol|
|  sn= 7 | S(rot)=             -inf Eh      -inf kcal/mol|
|  sn= 8 | S(rot)=             -inf Eh      -inf kcal/mol|
|  sn= 9 | S(rot)=             -inf Eh      -inf kcal/mol|
|  sn=10 | S(rot)=             -inf Eh      -inf kcal/mol|
|  sn=11 | S(rot)=             -inf Eh      -inf kcal/mol|
|  sn=12 | S(rot)=             -inf Eh      -inf kcal/mol|
 --------------------------------------------------------

-------------------
GIBBS FREE ENERGY
-------------------

The Gibbs free energy is G = H - T*S

Total enthalpy                    ...   -796.44085860 Eh
Total entropy correction          ...     -0.02589960 Eh    -16.25 kcal/mol
-----------------------------------------------------------------------
Final Gibbs free energy         ...   -796.46675820 Eh

For completeness - the Gibbs free energy minus the electronic energy
G-E(el)                           ...     -0.02084362 Eh    -13.08 kcal/mol

                             ****ORCA TERMINATED NORMALLY****
TOTAL RUN TIME: 0 days 0 hours 1 minutes 55 seconds 943 msec
