                         Program Version 4.2.0 -  RELEASE  -
|  1> #
|  2> # 33_SO tpssh/aug-cc-pvt(+d)z
|  3> #
|  4> ! tpssh d3bj aug-cc-pvt(+d)z def2/jk opt xyzfile numfreq
|  5>
|  6> *xyz 0 3
|  7> S            0.000000327         -0.000000134          0.002547174
|  8> O           -0.000000327          0.000000134          1.483667376
|  9> *
| 10>
| 11> %pal
| 12> nprocs 24
| 13> end
| 14>
| 15>
| 16>                          ****END OF INPUT****
 Total Charge           Charge          ....    0
 Multiplicity           Mult            ....    3
 Number of Electrons    NEL             ....   24
Dispersion correction           -0.000666656
FINAL SINGLE POINT ENERGY      -473.434594416903
Dispersion correction            ... done
Dispersion correction           -0.000666629
FINAL SINGLE POINT ENERGY      -473.434676320171
Dispersion correction            ... done
Dispersion correction           -0.000666604
FINAL SINGLE POINT ENERGY      -473.434700359720
Dispersion correction            ... done
                    ***********************HURRAY********************

CARTESIAN COORDINATES (ANGSTROEM)
---------------------------------
  S      0.000000   -0.000000   -0.002790
  O     -0.000000    0.000000    1.489004

 Multiplicity           Mult            ....    3
 Number of Electrons    NEL             ....   24
 Basis Dimension        Dim             ....  101

ORBITAL ENERGIES
----------------
                 SPIN UP ORBITALS
  NO   OCC          E(Eh)            E(eV)
   0   1.0000     -88.839352     -2417.4417
   1   1.0000     -19.134858      -520.6859
   2   1.0000      -7.956639      -216.5112
   3   1.0000      -5.906549      -160.7254
   4   1.0000      -5.906549      -160.7254
   5   1.0000      -5.905709      -160.7025
   6   1.0000      -1.067782       -29.0558
   7   1.0000      -0.671110       -18.2618
   8   1.0000      -0.440355       -11.9827
   9   1.0000      -0.440355       -11.9827
  10   1.0000      -0.440252       -11.9799
  11   1.0000      -0.254336        -6.9208
  12   1.0000      -0.254336        -6.9208
  13   0.0000      -0.028144        -0.7658
  14   0.0000       0.018167         0.4943
  15   0.0000       0.042737         1.1629
  16   0.0000       0.042737         1.1629
  17   0.0000       0.068965         1.8766

                 SPIN DOWN ORBITALS
  NO   OCC          E(Eh)            E(eV)
   0   1.0000     -88.832677     -2417.2600
   1   1.0000     -19.111654      -520.0546
   2   1.0000      -7.950339      -216.3397
   3   1.0000      -5.902363      -160.6115
   4   1.0000      -5.893768      -160.3776
   5   1.0000      -5.893768      -160.3776
   6   1.0000      -1.029341       -28.0098
   7   1.0000      -0.606718       -16.5096
   8   1.0000      -0.411642       -11.2014
   9   1.0000      -0.378206       -10.2915
  10   1.0000      -0.378206       -10.2915
  11   0.0000      -0.143348        -3.9007
  12   0.0000      -0.143348        -3.9007
  13   0.0000      -0.011740        -0.3195
  14   0.0000       0.030469         0.8291
  15   0.0000       0.054613         1.4861

MULLIKEN ATOMIC CHARGES AND SPIN POPULATIONS
--------------------------------------------
   0 S :    0.493442    1.296224
   1 O :   -0.493442    0.703776
Sum of atomic charges         :   -0.0000000

LOEWDIN ATOMIC CHARGES AND SPIN POPULATIONS
-------------------------------------------
   0 S :    0.424355    1.249142
   1 O :   -0.424355    0.750858

  Mayer bond orders larger than 0.100000
B(  0-S ,  1-O ) :   1.8463

Dispersion correction           -0.000666603
FINAL SINGLE POINT ENERGY      -473.434700304413

DIPOLE MOMENT
-------------
                                X             Y             Z
Electronic contribution:      0.00000      -0.00000      -0.59412
Nuclear contribution   :     -0.00000       0.00000       0.02909
                        -----------------------------------------
Total Dipole Moment    :      0.00000      -0.00000      -0.56502
                        -----------------------------------------
Magnitude (a.u.)       :      0.56502
Magnitude (Debye)      :      1.43618

VIBRATIONAL FREQUENCIES
-----------------------

Scaling factor for frequencies =  1.000000000 (already applied!)

   0:         0.00 cm**-1
   1:         0.00 cm**-1
   2:         0.00 cm**-1
   3:         0.00 cm**-1
   4:         0.00 cm**-1
   5:      1148.88 cm**-1

IR SPECTRUM
-----------

 Mode    freq (cm**-1)   T**2         TX         TY         TZ
-------------------------------------------------------------------
   5:      1148.88   18.231184  (  0.000002  -0.000003   4.269799)

--------------------------
THERMOCHEMISTRY AT 298.15K
--------------------------

Temperature         ... 298.15 K
Pressure            ... 1.00 atm
Total Mass          ... 48.06 AMU
The molecule is recognized as being linear

Throughout the following assumptions are being made:
  (1) The electronic state is orbitally nondegenerate
      but the spin degeneracy is treated
  (2) There are no thermally accessible electronically excited states
  (3) Hindered rotations indicated by low frequency modes are not
      treated as such but are treated as vibrations and this may
      cause some error
  (4) All equations used are the standard statistical mechanics
      equations for an ideal gas
  (5) All vibrations are strictly harmonic

freq.    1148.88  E(vib)   ...       0.01

------------
INNER ENERGY
------------

The inner energy is: U= E(el) + E(ZPE) + E(vib) + E(rot) + E(trans)
    E(el)   - is the total energy from the electronic structure calculation
              = E(kin-el) + E(nuc-el) + E(el-el) + E(nuc-nuc)
    E(ZPE)  - the the zero temperature vibrational energy from the frequency calculation
    E(vib)  - the the finite temperature correction to E(ZPE) due to population
              of excited vibrational states
    E(rot)  - is the rotational thermal energy
    E(trans)- is the translational thermal energy

Summary of contributions to the inner energy U:
Electronic energy                ...   -473.43469800 Eh
Zero point energy                ...      0.00261735 Eh       1.64 kcal/mol
Thermal vibrational correction   ...      0.00002055 Eh       0.01 kcal/mol
Thermal rotational correction    ...      0.00094418 Eh       0.59 kcal/mol
Thermal translational correction ...      0.00141627 Eh       0.89 kcal/mol
-----------------------------------------------------------------------
Total thermal energy                   -473.42969965 Eh

Summary of corrections to the electronic energy:
(perhaps to be used in another calculation)
Total thermal correction                  0.00238100 Eh       1.49 kcal/mol
Non-thermal (ZPE) correction              0.00261735 Eh       1.64 kcal/mol
-----------------------------------------------------------------------
Total correction                          0.00499835 Eh       3.14 kcal/mol

--------
ENTHALPY
--------

The enthalpy is H = U + kB*T
                kB is Boltzmann's constant
Total free energy                 ...   -473.42969965 Eh
Thermal Enthalpy correction       ...      0.00094421 Eh       0.59 kcal/mol
-----------------------------------------------------------------------
Total Enthalpy                    ...   -473.42875544 Eh

Note: Rotational entropy computed according to Herzberg
Infrared and Raman Spectra, Chapter V,1, Van Nostrand Reinhold, 1945
Point Group:  Cinfv, Symmetry Number:   1
Rotational constants in cm-1:     0.000000     0.709737     0.709737

Vibrational entropy computed according to the QRRHO of S. Grimme
Chem.Eur.J. 2012 18 9955

-------
ENTROPY
-------

The entropy contributions are T*S = T*(S(el)+S(vib)+S(rot)+S(trans))
     S(el)   - electronic entropy
     S(vib)  - vibrational entropy
     S(rot)  - rotational entropy
     S(trans)- translational entropy
The entropies will be listed as mutliplied by the temperature to get
units of energy

Electronic entropy                ...      0.00103729 Eh      0.65 kcal/mol
Vibrational entropy               ...      0.00002426 Eh      0.02 kcal/mol
Rotational entropy                ...      0.00630399 Eh      3.96 kcal/mol
Translational entropy             ...      0.01783348 Eh     11.19 kcal/mol
-----------------------------------------------------------------------
Final entropy term                ...      0.02519902 Eh     15.81 kcal/mol

In case the symmetry of your molecule has not been determined correctly
or in case you have a reason to use a different symmetry number we print
out the resulting rotational entropy values for sn=1,12 :
 --------------------------------------------------------
|  sn= 1 | S(rot)=             -nan Eh      -nan kcal/mol|
|  sn= 2 | S(rot)=             -nan Eh      -nan kcal/mol|
|  sn= 3 | S(rot)=             -nan Eh      -nan kcal/mol|
|  sn= 4 | S(rot)=             -nan Eh      -nan kcal/mol|
|  sn= 5 | S(rot)=             -nan Eh      -nan kcal/mol|
|  sn= 6 | S(rot)=             -nan Eh      -nan kcal/mol|
|  sn= 7 | S(rot)=             -nan Eh      -nan kcal/mol|
|  sn= 8 | S(rot)=             -nan Eh      -nan kcal/mol|
|  sn= 9 | S(rot)=             -nan Eh      -nan kcal/mol|
|  sn=10 | S(rot)=             -nan Eh      -nan kcal/mol|
|  sn=11 | S(rot)=             -nan Eh      -nan kcal/mol|
|  sn=12 | S(rot)=             -nan Eh      -nan kcal/mol|
 --------------------------------------------------------

-------------------
GIBBS FREE ENERGY
-------------------

The Gibbs free energy is G = H - T*S

Total enthalpy                    ...   -473.42875544 Eh
Total entropy correction          ...     -0.02519902 Eh    -15.81 kcal/mol
-----------------------------------------------------------------------
Final Gibbs free energy         ...   -473.45395446 Eh

For completeness - the Gibbs free energy minus the electronic energy
G-E(el)                           ...     -0.01925645 Eh    -12.08 kcal/mol

                             ****ORCA TERMINATED NORMALLY****
TOTAL RUN TIME: 0 days 0 hours 1 minutes 26 seconds 220 msec
