                               Psi4 1.3.2 release

  ==> Input File <==

--------------------------------------------------------------------------
memory 144 GB

molecule {
0 1
C    -0.000019357302   0.000019463138   0.000000000000
H     0.550957583976   0.795028935898   0.493665371846
H     0.679411832894  -0.808753517287  -0.252148612326
H    -0.773764775194  -0.371369697892   0.665364273486
H    -0.456685282991   0.385174814760  -0.906881128258}

set basis aug-cc-pV(Q+d)Z

frequencies("wB97X-V")
optimize("wB97X-V")
frequencies("wB97X-V")
--------------------------------------------------------------------------

    Molecular point group: c1
  Charge       = 0
  Multiplicity = 1
  Basis Set: AUG-CC-PV(Q+D)Z
    Blend: AUG-CC-PV(Q+D)Z
  Basis Set: (AUG-CC-PV(Q+D)Z AUX)
    Blend: AUG-CC-PVQZ-JKFIT
  @DF-RKS Final Energy:   -40.51861835219261
    Total Energy =                        -40.5186183521926111
    Molecular point group: c1
  Basis Set: AUG-CC-PV(Q+D)Z
    Blend: AUG-CC-PV(Q+D)Z
  Basis Set: (AUG-CC-PV(Q+D)Z AUX)
    Blend: AUG-CC-PVQZ-JKFIT
  @DF-RKS Final Energy:   -40.51861575530373
    Total Energy =                        -40.5186157553037347
  Basis Set: AUG-CC-PV(Q+D)Z
    Blend: AUG-CC-PV(Q+D)Z
  Basis Set: (AUG-CC-PV(Q+D)Z AUX)
    Blend: AUG-CC-PVQZ-JKFIT
  @DF-RKS Final Energy:   -40.51861575864087
    Total Energy =                        -40.5186157586408626
  Basis Set: AUG-CC-PV(Q+D)Z
    Blend: AUG-CC-PV(Q+D)Z
  Basis Set: (AUG-CC-PV(Q+D)Z AUX)
    Blend: AUG-CC-PVQZ-JKFIT
  @DF-RKS Final Energy:   -40.51861665024579
    Total Energy =                        -40.5186166502457894
  @DF-RKS Final Energy:   -40.51861663526499
    Total Energy =                        -40.5186166352649906
  @DF-RKS Final Energy:   -40.51861614996075
    Total Energy =                        -40.5186161499607493
  @DF-RKS Final Energy:   -40.51861621753542
    Total Energy =                        -40.5186162175354170
  @DF-RKS Final Energy:   -40.51860560943717
    Total Energy =                        -40.5186056094371665
  @DF-RKS Final Energy:   -40.51862510465244
    Total Energy =                        -40.5186251046524433
  @DF-RKS Final Energy:   -40.51860567400657
    Total Energy =                        -40.5186056740065652
  @DF-RKS Final Energy:   -40.51862669312934
    Total Energy =                        -40.5186266931293488
  @DF-RKS Final Energy:   -40.51861168695633
    Total Energy =                        -40.5186116869563264
  @DF-RKS Final Energy:   -40.51862201752471
    Total Energy =                        -40.5186220175247058
  @DF-RKS Final Energy:   -40.51860027168603
    Total Energy =                        -40.5186002716860258
  @DF-RKS Final Energy:   -40.51863042938699
    Total Energy =                        -40.5186304293869881
  @DF-RKS Final Energy:   -40.51861853503515
    Total Energy =                        -40.5186185350351522
  @DF-RKS Final Energy:   -40.51861403713353
    Total Energy =                        -40.5186140371335242
  @DF-RKS Final Energy:   -40.51863001547072
    Total Energy =                        -40.5186300154707197
  @DF-RKS Final Energy:   -40.51859954190277
    Total Energy =                        -40.5185995419027734
  @DF-RKS Final Energy:   -40.51861835219862
    Total Energy =                        -40.5186183521986081

  Vibration                       1                   2                   9
  Freq [cm^-1]                684.9942i           423.6028i            957.9266
  Irrep                           A                   A                   A
  Reduced mass [u]              1.1522              1.0232              1.1368
  Force const [mDyne/A]        -0.3185             -0.1082              0.6146

  Vibration                       10                  11                  12
  Freq [cm^-1]                1403.7278           1578.3590           2971.0093
  Irrep                           A                   A                   A
  Reduced mass [u]              1.1074              1.0966              1.1081
  Force const [mDyne/A]         1.2856              1.6096              5.7628

  Vibration                       13                  14                  15
  Freq [cm^-1]                3101.5855           3247.8633           3508.8778
  Irrep                           A                   A                   A
  Reduced mass [u]              1.0921              1.0227              1.1004
  Force const [mDyne/A]         6.1900              6.3561              7.9826

    Irrep   Nso     Nmo     Nalpha   Nbeta   Ndocc  Nsocc

    Irrep   Nso     Nmo     Nalpha   Nbeta   Ndocc  Nsocc

    Irrep   Nso     Nmo     Nalpha   Nbeta   Ndocc  Nsocc

    Irrep   Nso     Nmo     Nalpha   Nbeta   Ndocc  Nsocc

    Irrep   Nso     Nmo     Nalpha   Nbeta   Ndocc  Nsocc

    Irrep   Nso     Nmo     Nalpha   Nbeta   Ndocc  Nsocc

    Irrep   Nso     Nmo     Nalpha   Nbeta   Ndocc  Nsocc

    Irrep   Nso     Nmo     Nalpha   Nbeta   Ndocc  Nsocc

    Irrep   Nso     Nmo     Nalpha   Nbeta   Ndocc  Nsocc

    Irrep   Nso     Nmo     Nalpha   Nbeta   Ndocc  Nsocc

    Irrep   Nso     Nmo     Nalpha   Nbeta   Ndocc  Nsocc

    Irrep   Nso     Nmo     Nalpha   Nbeta   Ndocc  Nsocc

    Irrep   Nso     Nmo     Nalpha   Nbeta   Ndocc  Nsocc

    Irrep   Nso     Nmo     Nalpha   Nbeta   Ndocc  Nsocc

    Irrep   Nso     Nmo     Nalpha   Nbeta   Ndocc  Nsocc

    Irrep   Nso     Nmo     Nalpha   Nbeta   Ndocc  Nsocc

    Irrep   Nso     Nmo     Nalpha   Nbeta   Ndocc  Nsocc

    Irrep   Nso     Nmo     Nalpha   Nbeta   Ndocc  Nsocc

    Irrep   Nso     Nmo     Nalpha   Nbeta   Ndocc  Nsocc

    Irrep   Nso     Nmo     Nalpha   Nbeta   Ndocc  Nsocc

    Irrep   Nso     Nmo     Nalpha   Nbeta   Ndocc  Nsocc

    Irrep   Nso     Nmo     Nalpha   Nbeta   Ndocc  Nsocc

    Irrep   Nso     Nmo     Nalpha   Nbeta   Ndocc  Nsocc

    Irrep   Nso     Nmo     Nalpha   Nbeta   Ndocc  Nsocc

    Irrep   Nso     Nmo     Nalpha   Nbeta   Ndocc  Nsocc

    Irrep   Nso     Nmo     Nalpha   Nbeta   Ndocc  Nsocc

    Irrep   Nso     Nmo     Nalpha   Nbeta   Ndocc  Nsocc

    Irrep   Nso     Nmo     Nalpha   Nbeta   Ndocc  Nsocc

    Irrep   Nso     Nmo     Nalpha   Nbeta   Ndocc  Nsocc

    Irrep   Nso     Nmo     Nalpha   Nbeta   Ndocc  Nsocc

    Irrep   Nso     Nmo     Nalpha   Nbeta   Ndocc  Nsocc

    Irrep   Nso     Nmo     Nalpha   Nbeta   Ndocc  Nsocc

    Irrep   Nso     Nmo     Nalpha   Nbeta   Ndocc  Nsocc

    Irrep   Nso     Nmo     Nalpha   Nbeta   Ndocc  Nsocc

    Irrep   Nso     Nmo     Nalpha   Nbeta   Ndocc  Nsocc

    Irrep   Nso     Nmo     Nalpha   Nbeta   Ndocc  Nsocc

    Irrep   Nso     Nmo     Nalpha   Nbeta   Ndocc  Nsocc

    Irrep   Nso     Nmo     Nalpha   Nbeta   Ndocc  Nsocc

  **** Optimization is complete! (in 2 steps) ****
    Final optimized geometry and variables:

    Irrep   Nso     Nmo     Nalpha   Nbeta   Ndocc  Nsocc

    Irrep   Nso     Nmo     Nalpha   Nbeta   Ndocc  Nsocc

    Irrep   Nso     Nmo     Nalpha   Nbeta   Ndocc  Nsocc

    Irrep   Nso     Nmo     Nalpha   Nbeta   Ndocc  Nsocc

    Irrep   Nso     Nmo     Nalpha   Nbeta   Ndocc  Nsocc

    Irrep   Nso     Nmo     Nalpha   Nbeta   Ndocc  Nsocc

    Irrep   Nso     Nmo     Nalpha   Nbeta   Ndocc  Nsocc

    Irrep   Nso     Nmo     Nalpha   Nbeta   Ndocc  Nsocc

    Irrep   Nso     Nmo     Nalpha   Nbeta   Ndocc  Nsocc

    Irrep   Nso     Nmo     Nalpha   Nbeta   Ndocc  Nsocc

    Irrep   Nso     Nmo     Nalpha   Nbeta   Ndocc  Nsocc

    Irrep   Nso     Nmo     Nalpha   Nbeta   Ndocc  Nsocc

    Irrep   Nso     Nmo     Nalpha   Nbeta   Ndocc  Nsocc

    Irrep   Nso     Nmo     Nalpha   Nbeta   Ndocc  Nsocc

    Irrep   Nso     Nmo     Nalpha   Nbeta   Ndocc  Nsocc

    Irrep   Nso     Nmo     Nalpha   Nbeta   Ndocc  Nsocc

    Irrep   Nso     Nmo     Nalpha   Nbeta   Ndocc  Nsocc

    Irrep   Nso     Nmo     Nalpha   Nbeta   Ndocc  Nsocc

    Irrep   Nso     Nmo     Nalpha   Nbeta   Ndocc  Nsocc

     Irrep 1: 9

      Irrep 1: 90

    Irrep   Nso     Nmo     Nalpha   Nbeta   Ndocc  Nsocc

    Irrep   Nso     Nmo     Nalpha   Nbeta   Ndocc  Nsocc

    Irrep   Nso     Nmo     Nalpha   Nbeta   Ndocc  Nsocc

    Irrep   Nso     Nmo     Nalpha   Nbeta   Ndocc  Nsocc

    Irrep   Nso     Nmo     Nalpha   Nbeta   Ndocc  Nsocc

    Irrep   Nso     Nmo     Nalpha   Nbeta   Ndocc  Nsocc

    Irrep   Nso     Nmo     Nalpha   Nbeta   Ndocc  Nsocc

    Irrep   Nso     Nmo     Nalpha   Nbeta   Ndocc  Nsocc

    Irrep   Nso     Nmo     Nalpha   Nbeta   Ndocc  Nsocc

    Irrep   Nso     Nmo     Nalpha   Nbeta   Ndocc  Nsocc

    Irrep   Nso     Nmo     Nalpha   Nbeta   Ndocc  Nsocc

    Irrep   Nso     Nmo     Nalpha   Nbeta   Ndocc  Nsocc

    Irrep   Nso     Nmo     Nalpha   Nbeta   Ndocc  Nsocc

    Irrep   Nso     Nmo     Nalpha   Nbeta   Ndocc  Nsocc

    Irrep   Nso     Nmo     Nalpha   Nbeta   Ndocc  Nsocc

    Irrep   Nso     Nmo     Nalpha   Nbeta   Ndocc  Nsocc

    Irrep   Nso     Nmo     Nalpha   Nbeta   Ndocc  Nsocc

    Irrep   Nso     Nmo     Nalpha   Nbeta   Ndocc  Nsocc

    Irrep   Nso     Nmo     Nalpha   Nbeta   Ndocc  Nsocc

    Irrep   Nso     Nmo     Nalpha   Nbeta   Ndocc  Nsocc

    Irrep   Nso     Nmo     Nalpha   Nbeta   Ndocc  Nsocc

    Irrep   Nso     Nmo     Nalpha   Nbeta   Ndocc  Nsocc

    Irrep   Nso     Nmo     Nalpha   Nbeta   Ndocc  Nsocc

    Irrep   Nso     Nmo     Nalpha   Nbeta   Ndocc  Nsocc

    Irrep   Nso     Nmo     Nalpha   Nbeta   Ndocc  Nsocc

    Irrep   Nso     Nmo     Nalpha   Nbeta   Ndocc  Nsocc

    Irrep   Nso     Nmo     Nalpha   Nbeta   Ndocc  Nsocc

    Irrep   Nso     Nmo     Nalpha   Nbeta   Ndocc  Nsocc

    Irrep   Nso     Nmo     Nalpha   Nbeta   Ndocc  Nsocc

    Irrep   Nso     Nmo     Nalpha   Nbeta   Ndocc  Nsocc

    Irrep   Nso     Nmo     Nalpha   Nbeta   Ndocc  Nsocc

    Irrep   Nso     Nmo     Nalpha   Nbeta   Ndocc  Nsocc

    Irrep   Nso     Nmo     Nalpha   Nbeta   Ndocc  Nsocc

    Irrep   Nso     Nmo     Nalpha   Nbeta   Ndocc  Nsocc

    Irrep   Nso     Nmo     Nalpha   Nbeta   Ndocc  Nsocc

    Irrep   Nso     Nmo     Nalpha   Nbeta   Ndocc  Nsocc

    Irrep   Nso     Nmo     Nalpha   Nbeta   Ndocc  Nsocc

    Irrep   Nso     Nmo     Nalpha   Nbeta   Ndocc  Nsocc

    Irrep   Nso     Nmo     Nalpha   Nbeta   Ndocc  Nsocc

    Irrep   Nso     Nmo     Nalpha   Nbeta   Ndocc  Nsocc

    Irrep   Nso     Nmo     Nalpha   Nbeta   Ndocc  Nsocc

    Irrep   Nso     Nmo     Nalpha   Nbeta   Ndocc  Nsocc

    Irrep   Nso     Nmo     Nalpha   Nbeta   Ndocc  Nsocc

    Irrep   Nso     Nmo     Nalpha   Nbeta   Ndocc  Nsocc

    Irrep   Nso     Nmo     Nalpha   Nbeta   Ndocc  Nsocc

    Irrep   Nso     Nmo     Nalpha   Nbeta   Ndocc  Nsocc

    Irrep   Nso     Nmo     Nalpha   Nbeta   Ndocc  Nsocc

    Irrep   Nso     Nmo     Nalpha   Nbeta   Ndocc  Nsocc

    Irrep   Nso     Nmo     Nalpha   Nbeta   Ndocc  Nsocc

    Irrep   Nso     Nmo     Nalpha   Nbeta   Ndocc  Nsocc

    Irrep   Nso     Nmo     Nalpha   Nbeta   Ndocc  Nsocc

    Irrep   Nso     Nmo     Nalpha   Nbeta   Ndocc  Nsocc

    Irrep   Nso     Nmo     Nalpha   Nbeta   Ndocc  Nsocc

    Irrep   Nso     Nmo     Nalpha   Nbeta   Ndocc  Nsocc

    Irrep   Nso     Nmo     Nalpha   Nbeta   Ndocc  Nsocc

    Irrep   Nso     Nmo     Nalpha   Nbeta   Ndocc  Nsocc

    Irrep   Nso     Nmo     Nalpha   Nbeta   Ndocc  Nsocc

    Irrep   Nso     Nmo     Nalpha   Nbeta   Ndocc  Nsocc

    Irrep   Nso     Nmo     Nalpha   Nbeta   Ndocc  Nsocc

    Irrep   Nso     Nmo     Nalpha   Nbeta   Ndocc  Nsocc

    Irrep   Nso     Nmo     Nalpha   Nbeta   Ndocc  Nsocc

    Irrep   Nso     Nmo     Nalpha   Nbeta   Ndocc  Nsocc

    Irrep   Nso     Nmo     Nalpha   Nbeta   Ndocc  Nsocc

    Irrep   Nso     Nmo     Nalpha   Nbeta   Ndocc  Nsocc

    Irrep   Nso     Nmo     Nalpha   Nbeta   Ndocc  Nsocc

    Irrep   Nso     Nmo     Nalpha   Nbeta   Ndocc  Nsocc

    Irrep   Nso     Nmo     Nalpha   Nbeta   Ndocc  Nsocc

    Irrep   Nso     Nmo     Nalpha   Nbeta   Ndocc  Nsocc

    Irrep   Nso     Nmo     Nalpha   Nbeta   Ndocc  Nsocc

    Irrep   Nso     Nmo     Nalpha   Nbeta   Ndocc  Nsocc

    Irrep   Nso     Nmo     Nalpha   Nbeta   Ndocc  Nsocc

    Irrep   Nso     Nmo     Nalpha   Nbeta   Ndocc  Nsocc

  @DF-RKS Final Energy:   -40.51865533536004
    Total Energy =                        -40.5186553353600303

    Irrep   Nso     Nmo     Nalpha   Nbeta   Ndocc  Nsocc

  @DF-RKS Final Energy:   -40.51865538483050
    Total Energy =                        -40.5186553848305024

    Irrep   Nso     Nmo     Nalpha   Nbeta   Ndocc  Nsocc

  @DF-RKS Final Energy:   -40.51865207884423
    Total Energy =                        -40.5186520788442337

    Irrep   Nso     Nmo     Nalpha   Nbeta   Ndocc  Nsocc

  @DF-RKS Final Energy:   -40.51865251999694
    Total Energy =                        -40.5186525199969410

    Irrep   Nso     Nmo     Nalpha   Nbeta   Ndocc  Nsocc

  @DF-RKS Final Energy:   -40.51865488152009
    Total Energy =                        -40.5186548815200922

    Irrep   Nso     Nmo     Nalpha   Nbeta   Ndocc  Nsocc

  @DF-RKS Final Energy:   -40.51865446889942
    Total Energy =                        -40.5186544688994204

    Irrep   Nso     Nmo     Nalpha   Nbeta   Ndocc  Nsocc

  @DF-RKS Final Energy:   -40.51865169686737
    Total Energy =                        -40.5186516968673729

    Irrep   Nso     Nmo     Nalpha   Nbeta   Ndocc  Nsocc

  @DF-RKS Final Energy:   -40.51865130849627
    Total Energy =                        -40.5186513084962598

    Irrep   Nso     Nmo     Nalpha   Nbeta   Ndocc  Nsocc

  @DF-RKS Final Energy:   -40.51865254216894
    Total Energy =                        -40.5186525421689367

    Irrep   Nso     Nmo     Nalpha   Nbeta   Ndocc  Nsocc

  @DF-RKS Final Energy:   -40.51865205637413
    Total Energy =                        -40.5186520563741297

    Irrep   Nso     Nmo     Nalpha   Nbeta   Ndocc  Nsocc

  @DF-RKS Final Energy:   -40.51865354160938
    Total Energy =                        -40.5186535416093818

    Irrep   Nso     Nmo     Nalpha   Nbeta   Ndocc  Nsocc

  @DF-RKS Final Energy:   -40.51865338000044
    Total Energy =                        -40.5186533800004440

    Irrep   Nso     Nmo     Nalpha   Nbeta   Ndocc  Nsocc

  @DF-RKS Final Energy:   -40.51865129932382
    Total Energy =                        -40.5186512993238210

    Irrep   Nso     Nmo     Nalpha   Nbeta   Ndocc  Nsocc

  @DF-RKS Final Energy:   -40.51865126752961
    Total Energy =                        -40.5186512675296058

    Irrep   Nso     Nmo     Nalpha   Nbeta   Ndocc  Nsocc

  @DF-RKS Final Energy:   -40.51865265592743
    Total Energy =                        -40.5186526559274327

    Irrep   Nso     Nmo     Nalpha   Nbeta   Ndocc  Nsocc

  @DF-RKS Final Energy:   -40.51865225047717
    Total Energy =                        -40.5186522504771602
  Basis Set: AUG-CC-PV(Q+D)Z
    Blend: AUG-CC-PV(Q+D)Z

    Irrep   Nso     Nmo     Nalpha   Nbeta   Ndocc  Nsocc

  Basis Set: (AUG-CC-PV(Q+D)Z AUX)
    Blend: AUG-CC-PVQZ-JKFIT
  @DF-RKS Final Energy:   -40.51865276248050
    Total Energy =                        -40.5186527624804995
  Basis Set: AUG-CC-PV(Q+D)Z
    Blend: AUG-CC-PV(Q+D)Z

    Irrep   Nso     Nmo     Nalpha   Nbeta   Ndocc  Nsocc

  Basis Set: (AUG-CC-PV(Q+D)Z AUX)
    Blend: AUG-CC-PVQZ-JKFIT
  @DF-RKS Final Energy:   -40.51865277976773
    Total Energy =                        -40.5186527797677272
  Multiplicity = 1
  Basis Set: AUG-CC-PV(Q+D)Z
    Blend: AUG-CC-PV(Q+D)Z

    Irrep   Nso     Nmo     Nalpha   Nbeta   Ndocc  Nsocc

  Basis Set: (AUG-CC-PV(Q+D)Z AUX)
    Blend: AUG-CC-PVQZ-JKFIT
  @DF-RKS Final Energy:   -40.51865205732296
    Total Energy =                        -40.5186520573229600
    Molecular point group: c1

    Geometry (in Angstrom), charge = 0, multiplicity = 1:

       Center              X                  Y                   Z               Mass
    ------------   -----------------  -----------------  -----------------  -----------------
         C            0.000000606807    -0.000001835859     0.000004612627    12.000000000000
         H            0.552992678845     0.797928742069     0.495451271132     1.007825032230
         H            0.681920667145    -0.812539422274    -0.251787019134     1.007825032230
         H           -0.775825824330    -0.373825369034     0.668674388933     1.007825032230
         H           -0.459094746804     0.388457908498    -0.912393562690     1.007825032230

  Charge       = 0
  Multiplicity = 1
  Basis Set: AUG-CC-PV(Q+D)Z
    Blend: AUG-CC-PV(Q+D)Z

    Irrep   Nso     Nmo     Nalpha   Nbeta   Ndocc  Nsocc

  Basis Set: (AUG-CC-PV(Q+D)Z AUX)
    Blend: AUG-CC-PVQZ-JKFIT

    Orbital Energies [Eh]
    ---------------------

    Doubly Occupied:

       1A    -10.248727     2A     -0.822674     3A     -0.499031
       4A     -0.498609     5A     -0.498472

  @DF-RKS Final Energy:   -40.51865166921159

   => Energetics <=

    Nuclear Repulsion Energy =             13.4253829850911028
    One-Electron Energy =                 -79.8079145621557871
    Two-Electron Energy =                  30.3685525747181870
    DFT Exchange-Correlation Energy =      -4.5460329416264429
    Empirical Dispersion Energy =           0.0000000000000000
    VV10 Nonlocal Energy =                  0.0413602747613472
    Total Energy =                        -40.5186516692115930

  Dipole Moment: [D]
     X:     0.0012      Y:    -0.0006      Z:     0.0021     Total:     0.0025

  Vibration                       7                   8                   9
  Freq [cm^-1]                1125.4203           1232.8339           1291.4973
  Irrep                           A                   A                   A
  Reduced mass [u]              1.0412              1.1052              1.1537
  Force const [mDyne/A]         0.7770              0.9897              1.1337

  Vibration                       10                  11                  12
  Freq [cm^-1]                1491.3848           1904.8198           3073.1277
  Irrep                           A                   A                   A
  Reduced mass [u]              1.1757              1.0751              1.0602
  Force const [mDyne/A]         1.5408              2.2984              5.8994

  Vibration                       13                  14                  15
  Freq [cm^-1]                3108.9923           3176.9784           3414.9518
  Irrep                           A                   A                   A
  Reduced mass [u]              1.0812              1.0800              1.0664
  Force const [mDyne/A]         6.1573              6.4225              7.3274

  ==> Thermochemistry Components <==

  Entropy, S
    Electronic S            0.000 [cal/(mol K)]        0.000 [J/(mol K)]       0.00000000 [mEh/K] (multiplicity = 1)
    Translational S        34.261 [cal/(mol K)]      143.349 [J/(mol K)]       0.05459877 [mEh/K] (mol. weight = 16.0313 [u], P = 101325.00 [Pa])
    Rotational S           15.057 [cal/(mol K)]       63.000 [J/(mol K)]       0.02399545 [mEh/K] (symmetry no. = 1)
    Vibrational S           0.135 [cal/(mol K)]        0.564 [J/(mol K)]       0.00021494 [mEh/K]
  Total S                  49.453 [cal/(mol K)]      206.913 [J/(mol K)]       0.07880917 [mEh/K]
  Correction S              0.000 [cal/(mol K)]        0.000 [J/(mol K)]       0.00000000 [mEh/K]

  Constant volume heat capacity, Cv
    Electronic Cv           0.000 [cal/(mol K)]        0.000 [J/(mol K)]       0.00000000 [mEh/K]
    Translational Cv        2.981 [cal/(mol K)]       12.472 [J/(mol K)]       0.00475022 [mEh/K]
    Rotational Cv           2.981 [cal/(mol K)]       12.472 [J/(mol K)]       0.00475022 [mEh/K]
    Vibrational Cv          0.690 [cal/(mol K)]        2.888 [J/(mol K)]       0.00110006 [mEh/K]
  Total Cv                  6.652 [cal/(mol K)]       27.832 [J/(mol K)]       0.01060049 [mEh/K]
  Correction Cv             0.000 [cal/(mol K)]        0.000 [J/(mol K)]       0.00000000 [mEh/K]

  Constant pressure heat capacity, Cp
    Electronic Cp           0.000 [cal/(mol K)]        0.000 [J/(mol K)]       0.00000000 [mEh/K]
    Translational Cp        4.968 [cal/(mol K)]       20.786 [J/(mol K)]       0.00791703 [mEh/K]
    Rotational Cp           2.981 [cal/(mol K)]       12.472 [J/(mol K)]       0.00475022 [mEh/K]
    Vibrational Cp          0.690 [cal/(mol K)]        2.888 [J/(mol K)]       0.00110006 [mEh/K]
  Total Cp                  8.639 [cal/(mol K)]       36.146 [J/(mol K)]       0.01376730 [mEh/K]
  Correction Cp             0.000 [cal/(mol K)]        0.000 [J/(mol K)]       0.00000000 [mEh/K]

  ==> Thermochemistry Energy Analysis <==

  Raw electronic energy, E0
  Total E0, Electronic energy at well bottom at 0 [K]                  -40.51865792 [Eh]

  Zero-point energy, ZPE_vib = Sum_i nu_i / 2
    Electronic ZPE          0.000 [kcal/mol]        0.000 [kJ/mol]       0.00000000 [Eh]
    Translational ZPE       0.000 [kcal/mol]        0.000 [kJ/mol]       0.00000000 [Eh]
    Rotational ZPE          0.000 [kcal/mol]        0.000 [kJ/mol]       0.00000000 [Eh]
    Vibrational ZPE        28.334 [kcal/mol]      118.550 [kJ/mol]       0.04515330 [Eh]        9910.003 [cm^-1]
  Correction ZPE           28.334 [kcal/mol]      118.550 [kJ/mol]       0.04515330 [Eh]        9910.003 [cm^-1]
  Total ZPE, Electronic energy at 0 [K]                                -40.47350463 [Eh]

  Thermal Energy, E (includes ZPE)
    Electronic E            0.000 [kcal/mol]        0.000 [kJ/mol]       0.00000000 [Eh]
    Translational E         0.889 [kcal/mol]        3.718 [kJ/mol]       0.00141628 [Eh]
    Rotational E            0.889 [kcal/mol]        3.718 [kJ/mol]       0.00141628 [Eh]
    Vibrational E          28.369 [kcal/mol]      118.694 [kJ/mol]       0.04520811 [Eh]
  Correction E             30.146 [kcal/mol]      126.131 [kJ/mol]       0.04804067 [Eh]
  Total E, Electronic energy at  298.15 [K]                            -40.47061726 [Eh]

  Enthalpy, H_trans = E_trans + k_B * T
    Electronic H            0.000 [kcal/mol]        0.000 [kJ/mol]       0.00000000 [Eh]
    Translational H         1.481 [kcal/mol]        6.197 [kJ/mol]       0.00236046 [Eh]
    Rotational H            0.889 [kcal/mol]        3.718 [kJ/mol]       0.00141628 [Eh]
    Vibrational H          28.369 [kcal/mol]      118.694 [kJ/mol]       0.04520811 [Eh]
  Correction H             30.738 [kcal/mol]      128.610 [kJ/mol]       0.04898485 [Eh]
  Total H, Enthalpy at  298.15 [K]                                     -40.46967307 [Eh]

  Gibbs free energy, G = H - T * S
    Electronic G            0.000 [kcal/mol]        0.000 [kJ/mol]       0.00000000 [Eh]
    Translational G        -8.734 [kcal/mol]      -36.542 [kJ/mol]      -0.01391816 [Eh]
    Rotational G           -3.601 [kcal/mol]      -15.065 [kJ/mol]      -0.00573797 [Eh]
    Vibrational G          28.328 [kcal/mol]      118.526 [kJ/mol]       0.04514403 [Eh]
  Correction G             15.994 [kcal/mol]       66.918 [kJ/mol]       0.02548790 [Eh]
  Total G, Free enthalpy at  298.15 [K]                                -40.49317003 [Eh]

*** Psi4 exiting successfully. Buy a developer a beer!
