                               Psi4 1.3.2 release

  ==> Input File <==

--------------------------------------------------------------------------
memory 144 GB

molecule {
0 1
B 0.0000000000 0.0000000000 0.0000000000
H 0.0000000000 0.0000000000 1.1899000000
H 1.0304836280 0.0000000000 -0.5949500000
H -1.0304836280 -0.0000000000 -0.5949500000
}

set dynamic_level 1
set basis cc-pV(D+d)Z

optimize("wB97X-V")
frequencies("wB97X-V")
--------------------------------------------------------------------------

    Molecular point group: c2v
  Charge       = 0
  Multiplicity = 1
  Basis Set: CC-PV(D+D)Z
    Blend: CC-PV(D+D)Z
  Basis Set: (CC-PV(D+D)Z AUX)
    Blend: CC-PVDZ-JKFIT
  @DF-RKS Final Energy:   -26.59375284105216
    Total Energy =                        -26.5937528410521544
    Molecular point group: c2v
  Basis Set: CC-PV(D+D)Z
    Blend: CC-PV(D+D)Z
  Basis Set: (CC-PV(D+D)Z AUX)
    Blend: CC-PVDZ-JKFIT
  @DF-RKS Final Energy:   -26.59375051495525
    Total Energy =                        -26.5937505149552535
  Basis Set: CC-PV(D+D)Z
    Blend: CC-PV(D+D)Z
  Basis Set: (CC-PV(D+D)Z AUX)
    Blend: CC-PVDZ-JKFIT
  @DF-RKS Final Energy:   -26.59375050575734
    Total Energy =                        -26.5937505057573453
  Basis Set: CC-PV(D+D)Z
    Blend: CC-PV(D+D)Z
  Basis Set: (CC-PV(D+D)Z AUX)
    Blend: CC-PVDZ-JKFIT
  @DF-RKS Final Energy:   -26.59369826534491
    Total Energy =                        -26.5936982653449192
  @DF-RKS Final Energy:   -26.59380197644625
    Total Energy =                        -26.5938019764462545
  @DF-RKS Final Energy:   -26.59369827163851
    Total Energy =                        -26.5936982716385124
  @DF-RKS Final Energy:   -26.59380196999870
    Total Energy =                        -26.5938019699987009
  @DF-RKS Final Energy:   -26.59416212661746
    Total Energy =                        -26.5941621266174550
  @DF-RKS Final Energy:   -26.59415995056811
    Total Energy =                        -26.5941599505681054
  @DF-RKS Final Energy:   -26.59415995012767
    Total Energy =                        -26.5941599501276720
  @DF-RKS Final Energy:   -26.59416077887764
    Total Energy =                        -26.5941607788776437
  @DF-RKS Final Energy:   -26.59415842806086
    Total Energy =                        -26.5941584280608616
  @DF-RKS Final Energy:   -26.59416077939890
    Total Energy =                        -26.5941607793989085
  @DF-RKS Final Energy:   -26.59415842751875
    Total Energy =                        -26.5941584275187495
  **** Optimization is complete! (in 2 steps) ****
    Final optimized geometry and variables:
  @DF-RKS Final Energy:   -26.59416212662751
    Total Energy =                        -26.5941621266275092
  @DF-RKS Final Energy:   -26.59415995055705
    Total Energy =                        -26.5941599505570494
  @DF-RKS Final Energy:   -26.59415995011357
    Total Energy =                        -26.5941599501135677
  @DF-RKS Final Energy:   -26.59416077886248
    Total Energy =                        -26.5941607788624843
  @DF-RKS Final Energy:   -26.59415842805576
    Total Energy =                        -26.5941584280557635
  @DF-RKS Final Energy:   -26.59416077939373
    Total Energy =                        -26.5941607793937287
  @DF-RKS Final Energy:   -26.59415842751886
    Total Energy =                        -26.5941584275188632
  @DF-RKS Final Energy:   -26.59416212662748
    Total Energy =                        -26.5941621266274844
  @DF-RKS Final Energy:   -26.59415995055707
    Total Energy =                        -26.5941599505570636
  @DF-RKS Final Energy:   -26.59415995011359
    Total Energy =                        -26.5941599501135819
  @DF-RKS Final Energy:   -26.59416077886248
    Total Energy =                        -26.5941607788624843
  @DF-RKS Final Energy:   -26.59415842805576
    Total Energy =                        -26.5941584280557564
  @DF-RKS Final Energy:   -26.59416077939374
    Total Energy =                        -26.5941607793937393
  @DF-RKS Final Energy:   -26.59415842751887
    Total Energy =                        -26.5941584275188703
  @DF-RKS Final Energy:   -26.59415821557172
    Total Energy =                        -26.5941582155717242
  @DF-RKS Final Energy:   -26.59416057281587
    Total Energy =                        -26.5941605728158699
  @DF-RKS Final Energy:   -26.59415429929072
    Total Energy =                        -26.5941542992907181
  @DF-RKS Final Energy:   -26.59415662081653
    Total Energy =                        -26.5941566208165341
  @DF-RKS Final Energy:   -26.59415357764563
    Total Energy =                        -26.5941535776456348
  @DF-RKS Final Energy:   -26.59415826389558
    Total Energy =                        -26.5941582638955829
  @DF-RKS Final Energy:   -26.59415995030899
    Total Energy =                        -26.5941599503089883
  Basis Set: CC-PV(D+D)Z
    Blend: CC-PV(D+D)Z
  Basis Set: (CC-PV(D+D)Z AUX)
    Blend: CC-PVDZ-JKFIT
  @DF-RKS Final Energy:   -26.59416014358994
    Total Energy =                        -26.5941601435899422
  Basis Set: CC-PV(D+D)Z
    Blend: CC-PV(D+D)Z
  Basis Set: (CC-PV(D+D)Z AUX)
    Blend: CC-PVDZ-JKFIT
  @DF-RKS Final Energy:   -26.59415518491246
    Total Energy =                        -26.5941551849124558
  Multiplicity = 1
  Basis Set: CC-PV(D+D)Z
    Blend: CC-PV(D+D)Z
  Basis Set: (CC-PV(D+D)Z AUX)
    Blend: CC-PVDZ-JKFIT
  @DF-RKS Final Energy:   -26.59415518488991
    Total Energy =                        -26.5941551848899103
    Molecular point group: cs

    Geometry (in Angstrom), charge = 0, multiplicity = 1:

       Center              X                  Y                   Z               Mass
    ------------   -----------------  -----------------  -----------------  -----------------
         B            0.000000000000    -0.000370145531    -0.000000191985    11.009305360000
         H            0.000000000000     0.001347799813     1.207540491182     1.007825032230
         H            1.045758105591     0.001347802797    -0.603769196984     1.007825032230
         H           -1.045758105591     0.001347802797    -0.603769196984     1.007825032230

  Charge       = 0
  Multiplicity = 1
  Basis Set: CC-PV(D+D)Z
    Blend: CC-PV(D+D)Z
  Basis Set: (CC-PV(D+D)Z AUX)
    Blend: CC-PVDZ-JKFIT

    Orbital Energies [Eh]
    ---------------------

    Doubly Occupied:

       1Ap    -6.883275     2Ap    -0.633322     3Ap    -0.454479
       1App   -0.454479

  @DF-RKS Final Energy:   -26.59416150732777

   => Energetics <=

    Nuclear Repulsion Energy =              7.3324461816399085
    One-Electron Energy =                 -48.8673991771559386
    Two-Electron Energy =                  18.2136500228261227
    DFT Exchange-Correlation Energy =      -3.3067252203169160
    Empirical Dispersion Energy =           0.0000000000000000
    VV10 Nonlocal Energy =                  0.0338666856790600
    Total Energy =                        -26.5941615073277617

  Dipole Moment: [D]
     X:     0.0000      Y:    -0.0036      Z:     0.0000     Total:     0.0036

  Vibration                       7                   8                   9
  Freq [cm^-1]                1144.1941           1184.8203           1203.4804
  Irrep                           B2                  A1                  B1
  Reduced mass [u]              1.2531              1.1071              1.1088
  Force const [mDyne/A]         0.9666              0.9157              0.9462

  Vibration                       10                  11                  12
  Freq [cm^-1]                2561.1508           2702.7993           2710.0522
  Irrep                           A1                  A1                  B1
  Reduced mass [u]              1.0078              1.1274              1.1256
  Force const [mDyne/A]         3.8950              4.8522              4.8708

  ==> Thermochemistry Components <==

  Entropy, S
    Electronic S            0.000 [cal/(mol K)]        0.000 [J/(mol K)]       0.00000000 [mEh/K] (multiplicity = 1)
    Translational S        33.864 [cal/(mol K)]      141.688 [J/(mol K)]       0.05396630 [mEh/K] (mol. weight = 14.0328 [u], P = 101325.00 [Pa])
    Rotational S           13.264 [cal/(mol K)]       55.498 [J/(mol K)]       0.02113825 [mEh/K] (symmetry no. = 2)
    Vibrational S           0.137 [cal/(mol K)]        0.573 [J/(mol K)]       0.00021839 [mEh/K]
  Total S                  47.266 [cal/(mol K)]      197.760 [J/(mol K)]       0.07532293 [mEh/K]
  Correction S              0.000 [cal/(mol K)]        0.000 [J/(mol K)]       0.00000000 [mEh/K]

  Constant volume heat capacity, Cv
    Electronic Cv           0.000 [cal/(mol K)]        0.000 [J/(mol K)]       0.00000000 [mEh/K]
    Translational Cv        2.981 [cal/(mol K)]       12.472 [J/(mol K)]       0.00475022 [mEh/K]
    Rotational Cv           2.981 [cal/(mol K)]       12.472 [J/(mol K)]       0.00475022 [mEh/K]
    Vibrational Cv          0.665 [cal/(mol K)]        2.781 [J/(mol K)]       0.00105912 [mEh/K]
  Total Cv                  6.626 [cal/(mol K)]       27.724 [J/(mol K)]       0.01055955 [mEh/K]
  Correction Cv             0.000 [cal/(mol K)]        0.000 [J/(mol K)]       0.00000000 [mEh/K]

  Constant pressure heat capacity, Cp
    Electronic Cp           0.000 [cal/(mol K)]        0.000 [J/(mol K)]       0.00000000 [mEh/K]
    Translational Cp        4.968 [cal/(mol K)]       20.786 [J/(mol K)]       0.00791703 [mEh/K]
    Rotational Cp           2.981 [cal/(mol K)]       12.472 [J/(mol K)]       0.00475022 [mEh/K]
    Vibrational Cp          0.665 [cal/(mol K)]        2.781 [J/(mol K)]       0.00105912 [mEh/K]
  Total Cp                  8.613 [cal/(mol K)]       36.039 [J/(mol K)]       0.01372636 [mEh/K]
  Correction Cp             0.000 [cal/(mol K)]        0.000 [J/(mol K)]       0.00000000 [mEh/K]

  ==> Thermochemistry Energy Analysis <==

  Raw electronic energy, E0
  Total E0, Electronic energy at well bottom at 0 [K]                  -26.59416213 [Eh]

  Zero-point energy, ZPE_vib = Sum_i nu_i / 2
    Electronic ZPE          0.000 [kcal/mol]        0.000 [kJ/mol]       0.00000000 [Eh]
    Translational ZPE       0.000 [kcal/mol]        0.000 [kJ/mol]       0.00000000 [Eh]
    Rotational ZPE          0.000 [kcal/mol]        0.000 [kJ/mol]       0.00000000 [Eh]
    Vibrational ZPE        16.449 [kcal/mol]       68.824 [kJ/mol]       0.02621373 [Eh]        5753.249 [cm^-1]
  Correction ZPE           16.449 [kcal/mol]       68.824 [kJ/mol]       0.02621373 [Eh]        5753.249 [cm^-1]
  Total ZPE, Electronic energy at 0 [K]                                -26.56794840 [Eh]

  Thermal Energy, E (includes ZPE)
    Electronic E            0.000 [kcal/mol]        0.000 [kJ/mol]       0.00000000 [Eh]
    Translational E         0.889 [kcal/mol]        3.718 [kJ/mol]       0.00141628 [Eh]
    Rotational E            0.889 [kcal/mol]        3.718 [kJ/mol]       0.00141628 [Eh]
    Vibrational E          16.484 [kcal/mol]       68.970 [kJ/mol]       0.02626910 [Eh]
  Correction E             18.262 [kcal/mol]       76.406 [kJ/mol]       0.02910165 [Eh]
  Total E, Electronic energy at  298.15 [K]                            -26.56506047 [Eh]

  Enthalpy, H_trans = E_trans + k_B * T
    Electronic H            0.000 [kcal/mol]        0.000 [kJ/mol]       0.00000000 [Eh]
    Translational H         1.481 [kcal/mol]        6.197 [kJ/mol]       0.00236046 [Eh]
    Rotational H            0.889 [kcal/mol]        3.718 [kJ/mol]       0.00141628 [Eh]
    Vibrational H          16.484 [kcal/mol]       68.970 [kJ/mol]       0.02626910 [Eh]
  Correction H             18.854 [kcal/mol]       78.885 [kJ/mol]       0.03004584 [Eh]
  Total H, Enthalpy at  298.15 [K]                                     -26.56411629 [Eh]

  Gibbs free energy, G = H - T * S
    Electronic G            0.000 [kcal/mol]        0.000 [kJ/mol]       0.00000000 [Eh]
    Translational G        -8.615 [kcal/mol]      -36.047 [kJ/mol]      -0.01372959 [Eh]
    Rotational G           -3.066 [kcal/mol]      -12.828 [kJ/mol]      -0.00488609 [Eh]
    Vibrational G          16.443 [kcal/mol]       68.799 [kJ/mol]       0.02620399 [Eh]
  Correction G              4.762 [kcal/mol]       19.923 [kJ/mol]       0.00758831 [Eh]
  Total G, Free enthalpy at  298.15 [K]                                -26.58657382 [Eh]

*** Psi4 exiting successfully. Buy a developer a beer!
