                               Psi4 1.3.2 release

  ==> Input File <==

--------------------------------------------------------------------------
memory 144 GB

molecule {
0 1
C 0.0000000000 0.0000000000 0.0000000000
C 0.0000000000 0.0000000000 1.2065000000
H 0.0000000000 -0.0000000000 2.2699000000
H -0.0000000000 -0.0000000000 -1.0634000000
}

set dynamic_level 1
set basis cc-pV(D+d)Z

optimize("wB97X-V")
frequencies("wB97X-V")
--------------------------------------------------------------------------

    Molecular point group: d2h
  Charge       = 0
  Multiplicity = 1
  Basis Set: CC-PV(D+D)Z
    Blend: CC-PV(D+D)Z
  Basis Set: (CC-PV(D+D)Z AUX)
    Blend: CC-PVDZ-JKFIT
  @DF-RKS Final Energy:   -77.30474120422359
    Total Energy =                        -77.3047412042235891
    Molecular point group: d2h
  Basis Set: CC-PV(D+D)Z
    Blend: CC-PV(D+D)Z
  Basis Set: (CC-PV(D+D)Z AUX)
    Blend: CC-PVDZ-JKFIT
  @DF-RKS Final Energy:   -77.30472696377062
    Total Energy =                        -77.3047269637706194
  Basis Set: CC-PV(D+D)Z
    Blend: CC-PV(D+D)Z
  Basis Set: (CC-PV(D+D)Z AUX)
    Blend: CC-PVDZ-JKFIT
  @DF-RKS Final Energy:   -77.30474957437649
    Total Energy =                        -77.3047495743765012
  Basis Set: CC-PV(D+D)Z
    Blend: CC-PV(D+D)Z
  Basis Set: (CC-PV(D+D)Z AUX)
    Blend: CC-PVDZ-JKFIT
  @DF-RKS Final Energy:   -77.30467002065532
    Total Energy =                        -77.3046700206553083
  @DF-RKS Final Energy:   -77.30480139086463
    Total Energy =                        -77.3048013908646112
  @DF-RKS Final Energy:   -77.30494556674854
    Total Energy =                        -77.3049455667485574
  @DF-RKS Final Energy:   -77.30494455416556
    Total Energy =                        -77.3049445541655587
  @DF-RKS Final Energy:   -77.30494082629212
    Total Energy =                        -77.3049408262921247
  @DF-RKS Final Energy:   -77.30494828289405
    Total Energy =                        -77.3049482828940597
  @DF-RKS Final Energy:   -77.30493261616292
    Total Energy =                        -77.3049326161629295
  @DF-RKS Final Energy:   -77.30494859314581
    Total Energy =                        -77.3049485931458094
  @DF-RKS Final Energy:   -77.30494570919397
    Total Energy =                        -77.3049457091939729
  @DF-RKS Final Energy:   -77.30494571319181
    Total Energy =                        -77.3049457131918274
  @DF-RKS Final Energy:   -77.30494366863662
    Total Energy =                        -77.3049436686366107
  @DF-RKS Final Energy:   -77.30494320304270
    Total Energy =                        -77.3049432030427113
  **** Optimization is complete! (in 3 steps) ****
    Final optimized geometry and variables:
  @DF-RKS Final Energy:   -77.30494859314580
    Total Energy =                        -77.3049485931458094
  @DF-RKS Final Energy:   -77.30494570919399
    Total Energy =                        -77.3049457091939871
  @DF-RKS Final Energy:   -77.30494571319181
    Total Energy =                        -77.3049457131918132
  @DF-RKS Final Energy:   -77.30494366863670
    Total Energy =                        -77.3049436686366676
  @DF-RKS Final Energy:   -77.30494320304270
    Total Energy =                        -77.3049432030426829
  @DF-RKS Final Energy:   -77.30494859314584
    Total Energy =                        -77.3049485931458236
  @DF-RKS Final Energy:   -77.30494570919399
    Total Energy =                        -77.3049457091939871
  @DF-RKS Final Energy:   -77.30494571319181
    Total Energy =                        -77.3049457131917990
  @DF-RKS Final Energy:   -77.30494366863667
    Total Energy =                        -77.3049436686366676
  @DF-RKS Final Energy:   -77.30494320304268
    Total Energy =                        -77.3049432030426686
  @DF-RKS Final Energy:   -77.30493725027677
    Total Energy =                        -77.3049372502767511
  @DF-RKS Final Energy:   -77.30493767272445
    Total Energy =                        -77.3049376727244635
  @DF-RKS Final Energy:   -77.30494836597153
    Total Energy =                        -77.3049483659715548
  Basis Set: CC-PV(D+D)Z
    Blend: CC-PV(D+D)Z
  Basis Set: (CC-PV(D+D)Z AUX)
    Blend: CC-PVDZ-JKFIT
  @DF-RKS Final Energy:   -77.30494836653685
    Total Energy =                        -77.3049483665368484
  Basis Set: CC-PV(D+D)Z
    Blend: CC-PV(D+D)Z
  Basis Set: (CC-PV(D+D)Z AUX)
    Blend: CC-PVDZ-JKFIT
  @DF-RKS Final Energy:   -77.30494300654716
    Total Energy =                        -77.3049430065471768
  Multiplicity = 1
  Basis Set: CC-PV(D+D)Z
    Blend: CC-PV(D+D)Z
  Basis Set: (CC-PV(D+D)Z AUX)
    Blend: CC-PVDZ-JKFIT
  @DF-RKS Final Energy:   -77.30494829749408
    Total Energy =                        -77.3049482974940787
    Molecular point group: c2v

    Geometry (in Angstrom), charge = 0, multiplicity = 1:

       Center              X                  Y                   Z               Mass
    ------------   -----------------  -----------------  -----------------  -----------------
         C           -0.000150333491     0.000000000000    -0.604189338333    12.000000000000
         C           -0.000150333491     0.000000000000     0.604189338333    12.000000000000
         H            0.001789995126     0.000000000000     1.679153302331     1.007825032230
         H            0.001789995126     0.000000000000    -1.679153302331     1.007825032230

  Charge       = 0
  Multiplicity = 1
  Basis Set: CC-PV(D+D)Z
    Blend: CC-PV(D+D)Z
  Basis Set: (CC-PV(D+D)Z AUX)
    Blend: CC-PVDZ-JKFIT

    Orbital Energies [Eh]
    ---------------------

    Doubly Occupied:

       1A1   -10.293649     1B2   -10.291380     2A1    -0.879550
       2B2    -0.679959     3A1    -0.599860     1B1    -0.391404
       4A1    -0.391404

  @DF-RKS Final Energy:   -77.30494829747160

   => Energetics <=

    Nuclear Repulsion Energy =             24.6111602293122331
    One-Electron Energy =                -151.5537282719285486
    Two-Electron Energy =                  57.4517085551693114
    DFT Exchange-Correlation Energy =      -7.8718789551453643
    Empirical Dispersion Energy =           0.0000000000000000
    VV10 Nonlocal Energy =                  0.0577901451207693
    Total Energy =                        -77.3049482974716113

  Dipole Moment: [D]
     X:     0.0036      Y:     0.0000      Z:     0.0000     Total:     0.0036

  Vibration                       6                   7                   8
  Freq [cm^-1]                 692.1303            692.9931            790.5685
  Irrep                          B3g                 B2g                 B2u
  Reduced mass [u]              1.5757              1.5757              1.0848
  Force const [mDyne/A]         0.4447              0.4459              0.3995

  Vibration                       9                   10                  11
  Freq [cm^-1]                 790.5986           2106.9671           3436.5527
  Irrep                          B3u                  Ag                 B1u
  Reduced mass [u]              1.0848              3.7250              1.0848
  Force const [mDyne/A]         0.3995              9.7431              7.5484

  Vibration                       12
  Freq [cm^-1]                3543.3644
  Irrep                           Ag
  Reduced mass [u]              1.2390
  Force const [mDyne/A]         9.1653

  ==> Thermochemistry Components <==

  Entropy, S
    Electronic S            0.000 [cal/(mol K)]        0.000 [J/(mol K)]       0.00000000 [mEh/K] (multiplicity = 1)
    Translational S        35.704 [cal/(mol K)]      149.387 [J/(mol K)]       0.05689862 [mEh/K] (mol. weight = 26.0157 [u], P = 101325.00 [Pa])
    Rotational S           10.902 [cal/(mol K)]       45.614 [J/(mol K)]       0.01737361 [mEh/K] (symmetry no. = 2)
    Vibrational S           1.061 [cal/(mol K)]        4.440 [J/(mol K)]       0.00169096 [mEh/K]
  Total S                  47.668 [cal/(mol K)]      199.441 [J/(mol K)]       0.07596319 [mEh/K]
  Correction S              0.000 [cal/(mol K)]        0.000 [J/(mol K)]       0.00000000 [mEh/K]

  Constant volume heat capacity, Cv
    Electronic Cv           0.000 [cal/(mol K)]        0.000 [J/(mol K)]       0.00000000 [mEh/K]
    Translational Cv        2.981 [cal/(mol K)]       12.472 [J/(mol K)]       0.00475022 [mEh/K]
    Rotational Cv           1.987 [cal/(mol K)]        8.314 [J/(mol K)]       0.00316681 [mEh/K]
    Vibrational Cv          3.028 [cal/(mol K)]       12.668 [J/(mol K)]       0.00482509 [mEh/K]
  Total Cv                  7.996 [cal/(mol K)]       33.454 [J/(mol K)]       0.01274212 [mEh/K]
  Correction Cv             0.000 [cal/(mol K)]        0.000 [J/(mol K)]       0.00000000 [mEh/K]

  Constant pressure heat capacity, Cp
    Electronic Cp           0.000 [cal/(mol K)]        0.000 [J/(mol K)]       0.00000000 [mEh/K]
    Translational Cp        4.968 [cal/(mol K)]       20.786 [J/(mol K)]       0.00791703 [mEh/K]
    Rotational Cp           1.987 [cal/(mol K)]        8.314 [J/(mol K)]       0.00316681 [mEh/K]
    Vibrational Cp          3.028 [cal/(mol K)]       12.668 [J/(mol K)]       0.00482509 [mEh/K]
  Total Cp                  9.983 [cal/(mol K)]       41.769 [J/(mol K)]       0.01590893 [mEh/K]
  Correction Cp             0.000 [cal/(mol K)]        0.000 [J/(mol K)]       0.00000000 [mEh/K]

  ==> Thermochemistry Energy Analysis <==

  Raw electronic energy, E0
  Total E0, Electronic energy at well bottom at 0 [K]                  -77.30494859 [Eh]

  Zero-point energy, ZPE_vib = Sum_i nu_i / 2
    Electronic ZPE          0.000 [kcal/mol]        0.000 [kJ/mol]       0.00000000 [Eh]
    Translational ZPE       0.000 [kcal/mol]        0.000 [kJ/mol]       0.00000000 [Eh]
    Rotational ZPE          0.000 [kcal/mol]        0.000 [kJ/mol]       0.00000000 [Eh]
    Vibrational ZPE        17.231 [kcal/mol]       72.094 [kJ/mol]       0.02745915 [Eh]        6026.587 [cm^-1]
  Correction ZPE           17.231 [kcal/mol]       72.094 [kJ/mol]       0.02745915 [Eh]        6026.587 [cm^-1]
  Total ZPE, Electronic energy at 0 [K]                                -77.27748944 [Eh]

  Thermal Energy, E (includes ZPE)
    Electronic E            0.000 [kcal/mol]        0.000 [kJ/mol]       0.00000000 [Eh]
    Translational E         0.889 [kcal/mol]        3.718 [kJ/mol]       0.00141628 [Eh]
    Rotational E            0.592 [kcal/mol]        2.479 [kJ/mol]       0.00094418 [Eh]
    Vibrational E          17.478 [kcal/mol]       73.129 [kJ/mol]       0.02785321 [Eh]
  Correction E             18.959 [kcal/mol]       79.326 [kJ/mol]       0.03021367 [Eh]
  Total E, Electronic energy at  298.15 [K]                            -77.27473492 [Eh]

  Enthalpy, H_trans = E_trans + k_B * T
    Electronic H            0.000 [kcal/mol]        0.000 [kJ/mol]       0.00000000 [Eh]
    Translational H         1.481 [kcal/mol]        6.197 [kJ/mol]       0.00236046 [Eh]
    Rotational H            0.592 [kcal/mol]        2.479 [kJ/mol]       0.00094418 [Eh]
    Vibrational H          17.478 [kcal/mol]       73.129 [kJ/mol]       0.02785321 [Eh]
  Correction H             19.552 [kcal/mol]       81.805 [kJ/mol]       0.03115786 [Eh]
  Total H, Enthalpy at  298.15 [K]                                     -77.27379074 [Eh]

  Gibbs free energy, G = H - T * S
    Electronic G            0.000 [kcal/mol]        0.000 [kJ/mol]       0.00000000 [Eh]
    Translational G        -9.164 [kcal/mol]      -38.342 [kJ/mol]      -0.01460386 [Eh]
    Rotational G           -2.658 [kcal/mol]      -11.121 [kJ/mol]      -0.00423576 [Eh]
    Vibrational G          17.162 [kcal/mol]       71.805 [kJ/mol]       0.02734905 [Eh]
  Correction G              5.340 [kcal/mol]       22.342 [kJ/mol]       0.00850943 [Eh]
  Total G, Free enthalpy at  298.15 [K]                                -77.29643916 [Eh]

*** Psi4 exiting successfully. Buy a developer a beer!
