                               Psi4 1.3.2 release

  ==> Input File <==

--------------------------------------------------------------------------
memory 144 GB

molecule {
0 1
C 0.0000000000 0.0000000000 0.0000000000
C 0.0000000000 0.0000000000 1.3342000000
H 0.9234041342 0.0000000000 1.8987335198
H -0.9234041342 0.0000000000 1.8987335198
H 0.9234041342 0.0000000000 -0.5645335198
H -0.9234041342 -0.0000000000 -0.5645335198
}

set dynamic_level 1
set basis cc-pV(D+d)Z

optimize("wB97X-V")
frequencies("wB97X-V")
--------------------------------------------------------------------------

    Molecular point group: d2h
  Charge       = 0
  Multiplicity = 1
  Basis Set: CC-PV(D+D)Z
    Blend: CC-PV(D+D)Z
  Basis Set: (CC-PV(D+D)Z AUX)
    Blend: CC-PVDZ-JKFIT
  @DF-RKS Final Energy:   -78.56095811979976
    Total Energy =                        -78.5609581197997642
    Molecular point group: d2h
  Basis Set: CC-PV(D+D)Z
    Blend: CC-PV(D+D)Z
  Basis Set: (CC-PV(D+D)Z AUX)
    Blend: CC-PVDZ-JKFIT
  @DF-RKS Final Energy:   -78.56093312231172
    Total Energy =                        -78.5609331223117380
  Basis Set: CC-PV(D+D)Z
    Blend: CC-PV(D+D)Z
  Basis Set: (CC-PV(D+D)Z AUX)
    Blend: CC-PVDZ-JKFIT
  @DF-RKS Final Energy:   -78.56097994705431
    Total Energy =                        -78.5609799470543066
  Basis Set: CC-PV(D+D)Z
    Blend: CC-PV(D+D)Z
  Basis Set: (CC-PV(D+D)Z AUX)
    Blend: CC-PVDZ-JKFIT
  @DF-RKS Final Energy:   -78.56087672013314
    Total Energy =                        -78.5608767201331517
  @DF-RKS Final Energy:   -78.56103173869253
    Total Energy =                        -78.5610317386925345
  @DF-RKS Final Energy:   -78.56090770746300
    Total Energy =                        -78.5609077074630164
  @DF-RKS Final Energy:   -78.56100469402826
    Total Energy =                        -78.5610046940282558
  @DF-RKS Final Energy:   -78.56140075300777
    Total Energy =                        -78.5614007530077743
  @DF-RKS Final Energy:   -78.56139870737604
    Total Energy =                        -78.5613987073760427
  @DF-RKS Final Energy:   -78.56139963029025
    Total Energy =                        -78.5613996302902393
  @DF-RKS Final Energy:   -78.56140270944493
    Total Energy =                        -78.5614027094449483
  @DF-RKS Final Energy:   -78.56139153684899
    Total Energy =                        -78.5613915368489870
  @DF-RKS Final Energy:   -78.56139908667434
    Total Energy =                        -78.5613990866743421
  @DF-RKS Final Energy:   -78.56139871909510
    Total Energy =                        -78.5613987190951093
  @DF-RKS Final Energy:   -78.56140381733337
    Total Energy =                        -78.5614038173333711
  @DF-RKS Final Energy:   -78.56140177904970
    Total Energy =                        -78.5614017790497030
  @DF-RKS Final Energy:   -78.56140268196576
    Total Energy =                        -78.5614026819657454
  @DF-RKS Final Energy:   -78.56140084041293
    Total Energy =                        -78.5614008404129294
  @DF-RKS Final Energy:   -78.56139951419458
    Total Energy =                        -78.5613995141945622
  @DF-RKS Final Energy:   -78.56140130921658
    Total Energy =                        -78.5614013092165777
  **** Optimization is complete! (in 3 steps) ****
    Final optimized geometry and variables:
  @DF-RKS Final Energy:   -78.56139744750043
    Total Energy =                        -78.5613974475004397
  @DF-RKS Final Energy:   -78.56140027072959
    Total Energy =                        -78.5614002707295924
  @DF-RKS Final Energy:   -78.56139806211897
    Total Energy =                        -78.5613980621189540
  @DF-RKS Final Energy:   -78.56139524481635
    Total Energy =                        -78.5613952448163531
  @DF-RKS Final Energy:   -78.56139522462966
    Total Energy =                        -78.5613952246296492
  @DF-RKS Final Energy:   -78.56140216097056
    Total Energy =                        -78.5614021609705588
  @DF-RKS Final Energy:   -78.56139976706109
    Total Energy =                        -78.5613997670610900
  @DF-RKS Final Energy:   -78.56139457564562
    Total Energy =                        -78.5613945756456218
  @DF-RKS Final Energy:   -78.56139457562986
    Total Energy =                        -78.5613945756298762
  @DF-RKS Final Energy:   -78.56140335934751
    Total Energy =                        -78.5614033593475085
  @DF-RKS Final Energy:   -78.56140328185769
    Total Energy =                        -78.5614032818576788
  @DF-RKS Final Energy:   -78.56140176766075
    Total Energy =                        -78.5614017676607546
  @DF-RKS Final Energy:   -78.56140016870999
    Total Energy =                        -78.5614001687099801
  @DF-RKS Final Energy:   -78.56140147507141
    Total Energy =                        -78.5614014750714063
  @DF-RKS Final Energy:   -78.56140147517577
    Total Energy =                        -78.5614014751757850
  @DF-RKS Final Energy:   -78.56140336166011
    Total Energy =                        -78.5614033616601120
  Basis Set: CC-PV(D+D)Z
    Blend: CC-PV(D+D)Z
  Basis Set: (CC-PV(D+D)Z AUX)
    Blend: CC-PVDZ-JKFIT
  @DF-RKS Final Energy:   -78.56139993782897
    Total Energy =                        -78.5613999378289662
  Basis Set: CC-PV(D+D)Z
    Blend: CC-PV(D+D)Z
  Basis Set: (CC-PV(D+D)Z AUX)
    Blend: CC-PVDZ-JKFIT
  @DF-RKS Final Energy:   -78.56140231286166
    Total Energy =                        -78.5614023128616452
  Multiplicity = 1
  Basis Set: CC-PV(D+D)Z
    Blend: CC-PV(D+D)Z
  Basis Set: (CC-PV(D+D)Z AUX)
    Blend: CC-PVDZ-JKFIT
  @DF-RKS Final Energy:   -78.56140253369549
    Total Energy =                        -78.5614025336954853
    Molecular point group: c2v

    Geometry (in Angstrom), charge = 0, multiplicity = 1:

       Center              X                  Y                   Z               Mass
    ------------   -----------------  -----------------  -----------------  -----------------
         C           -0.000204817217     0.000000000000    -0.666202259757    12.000000000000
         C           -0.000204817217     0.000000000000     0.666202259757    12.000000000000
         H            0.934761955766     0.000000000000     1.237592888582     1.007825032230
         H           -0.932323232247     0.000000000000     1.240228482924     1.007825032230
         H            0.934761955766     0.000000000000    -1.237592888582     1.007825032230
         H           -0.932323232247     0.000000000000    -1.240228482924     1.007825032230

  Charge       = 0
  Multiplicity = 1
  Basis Set: CC-PV(D+D)Z
    Blend: CC-PV(D+D)Z
  Basis Set: (CC-PV(D+D)Z AUX)
    Blend: CC-PVDZ-JKFIT

    Orbital Energies [Eh]
    ---------------------

    Doubly Occupied:

       1A1   -10.285193     1B2   -10.284382     2A1    -0.889968
       2B2    -0.695496     3A1    -0.577017     4A1    -0.522437
       3B2    -0.453660     1B1    -0.372609

  @DF-RKS Final Energy:   -78.56140253340503

   => Energetics <=

    Nuclear Repulsion Energy =             33.2152796994339710
    One-Electron Energy =                -169.9379301090885974
    Two-Electron Energy =                  66.3884092450571472
    DFT Exchange-Correlation Energy =      -8.2921497109425601
    Empirical Dispersion Energy =           0.0000000000000000
    VV10 Nonlocal Energy =                  0.0649883421349983
    Total Energy =                        -78.5614025334050439

  Dipole Moment: [D]
     X:    -0.0002      Y:     0.0000      Z:     0.0000     Total:     0.0002

  Vibration                       7                   8                   9
  Freq [cm^-1]                 826.0140            981.4024            983.8900
  Irrep                          B3u                 B2u                 B3g
  Reduced mass [u]              1.0421              1.1607              1.5192
  Force const [mDyne/A]         0.4189              0.6587              0.8665

  Vibration                       10                  11                  12
  Freq [cm^-1]                1063.8846           1232.4745           1373.3081
  Irrep                           Au                 B2g                  Ag
  Reduced mass [u]              1.0078              1.5287              1.1452
  Force const [mDyne/A]         0.6721              1.3681              1.2725

  Vibration                       13                  14                  15
  Freq [cm^-1]                1446.9203           1728.2937           3154.7083
  Irrep                          B1u                  Ag                 B1u
  Reduced mass [u]              1.1126              3.7356              1.0471
  Force const [mDyne/A]         1.3724              6.5743              6.1400

  Vibration                       16                  17                  18
  Freq [cm^-1]                3177.8306           3247.2139           3270.9328
  Irrep                           Ag                 B2g                 B3u
  Reduced mass [u]              1.0789              1.1147              1.1184
  Force const [mDyne/A]         6.4192              6.9253              7.0501

  ==> Thermochemistry Components <==

  Entropy, S
    Electronic S            0.000 [cal/(mol K)]        0.000 [J/(mol K)]       0.00000000 [mEh/K] (multiplicity = 1)
    Translational S        35.927 [cal/(mol K)]      150.318 [J/(mol K)]       0.05725309 [mEh/K] (mol. weight = 28.0313 [u], P = 101325.00 [Pa])
    Rotational S           15.890 [cal/(mol K)]       66.485 [J/(mol K)]       0.02532282 [mEh/K] (symmetry no. = 4)
    Vibrational S           0.535 [cal/(mol K)]        2.240 [J/(mol K)]       0.00085330 [mEh/K]
  Total S                  52.353 [cal/(mol K)]      219.043 [J/(mol K)]       0.08342921 [mEh/K]
  Correction S              0.000 [cal/(mol K)]        0.000 [J/(mol K)]       0.00000000 [mEh/K]

  Constant volume heat capacity, Cv
    Electronic Cv           0.000 [cal/(mol K)]        0.000 [J/(mol K)]       0.00000000 [mEh/K]
    Translational Cv        2.981 [cal/(mol K)]       12.472 [J/(mol K)]       0.00475022 [mEh/K]
    Rotational Cv           2.981 [cal/(mol K)]       12.472 [J/(mol K)]       0.00475022 [mEh/K]
    Vibrational Cv          2.138 [cal/(mol K)]        8.947 [J/(mol K)]       0.00340757 [mEh/K]
  Total Cv                  8.100 [cal/(mol K)]       33.890 [J/(mol K)]       0.01290800 [mEh/K]
  Correction Cv             0.000 [cal/(mol K)]        0.000 [J/(mol K)]       0.00000000 [mEh/K]

  Constant pressure heat capacity, Cp
    Electronic Cp           0.000 [cal/(mol K)]        0.000 [J/(mol K)]       0.00000000 [mEh/K]
    Translational Cp        4.968 [cal/(mol K)]       20.786 [J/(mol K)]       0.00791703 [mEh/K]
    Rotational Cp           2.981 [cal/(mol K)]       12.472 [J/(mol K)]       0.00475022 [mEh/K]
    Vibrational Cp          2.138 [cal/(mol K)]        8.947 [J/(mol K)]       0.00340757 [mEh/K]
  Total Cp                 10.087 [cal/(mol K)]       42.204 [J/(mol K)]       0.01607481 [mEh/K]
  Correction Cp             0.000 [cal/(mol K)]        0.000 [J/(mol K)]       0.00000000 [mEh/K]

  ==> Thermochemistry Energy Analysis <==

  Raw electronic energy, E0
  Total E0, Electronic energy at well bottom at 0 [K]                  -78.56140382 [Eh]

  Zero-point energy, ZPE_vib = Sum_i nu_i / 2
    Electronic ZPE          0.000 [kcal/mol]        0.000 [kJ/mol]       0.00000000 [Eh]
    Translational ZPE       0.000 [kcal/mol]        0.000 [kJ/mol]       0.00000000 [Eh]
    Rotational ZPE          0.000 [kcal/mol]        0.000 [kJ/mol]       0.00000000 [Eh]
    Vibrational ZPE        32.147 [kcal/mol]      134.501 [kJ/mol]       0.05122887 [Eh]       11243.436 [cm^-1]
  Correction ZPE           32.147 [kcal/mol]      134.501 [kJ/mol]       0.05122887 [Eh]       11243.436 [cm^-1]
  Total ZPE, Electronic energy at 0 [K]                                -78.51017495 [Eh]

  Thermal Energy, E (includes ZPE)
    Electronic E            0.000 [kcal/mol]        0.000 [kJ/mol]       0.00000000 [Eh]
    Translational E         0.889 [kcal/mol]        3.718 [kJ/mol]       0.00141628 [Eh]
    Rotational E            0.889 [kcal/mol]        3.718 [kJ/mol]       0.00141628 [Eh]
    Vibrational E          32.278 [kcal/mol]      135.052 [kJ/mol]       0.05143863 [Eh]
  Correction E             34.056 [kcal/mol]      142.489 [kJ/mol]       0.05427118 [Eh]
  Total E, Electronic energy at  298.15 [K]                            -78.50713263 [Eh]

  Enthalpy, H_trans = E_trans + k_B * T
    Electronic H            0.000 [kcal/mol]        0.000 [kJ/mol]       0.00000000 [Eh]
    Translational H         1.481 [kcal/mol]        6.197 [kJ/mol]       0.00236046 [Eh]
    Rotational H            0.889 [kcal/mol]        3.718 [kJ/mol]       0.00141628 [Eh]
    Vibrational H          32.278 [kcal/mol]      135.052 [kJ/mol]       0.05143863 [Eh]
  Correction H             34.648 [kcal/mol]      144.968 [kJ/mol]       0.05521537 [Eh]
  Total H, Enthalpy at  298.15 [K]                                     -78.50618845 [Eh]

  Gibbs free energy, G = H - T * S
    Electronic G            0.000 [kcal/mol]        0.000 [kJ/mol]       0.00000000 [Eh]
    Translational G        -9.230 [kcal/mol]      -38.620 [kJ/mol]      -0.01470955 [Eh]
    Rotational G           -3.849 [kcal/mol]      -16.104 [kJ/mol]      -0.00613372 [Eh]
    Vibrational G          32.119 [kcal/mol]      134.384 [kJ/mol]       0.05118422 [Eh]
  Correction G             19.039 [kcal/mol]       79.660 [kJ/mol]       0.03034095 [Eh]
  Total G, Free enthalpy at  298.15 [K]                                -78.53106287 [Eh]

*** Psi4 exiting successfully. Buy a developer a beer!
