                               Psi4 1.3.2 release

  ==> Input File <==

--------------------------------------------------------------------------
memory 144 GB

molecule {
0 1
C 0.0000000000 0.0000000000 0.0000000000
Cl 0.0000000000 0.0000000000 1.7182578700
Cl 1.6229007750 0.0000000000 -0.5644494507
}

set dynamic_level 1
set basis cc-pV(D+d)Z

optimize("wB97X-V")
frequencies("wB97X-V")
--------------------------------------------------------------------------

    Molecular point group: c2v
  Charge       = 0
  Multiplicity = 1
  Basis Set: CC-PV(D+D)Z
    Blend: CC-PV(D+D)Z
  Basis Set: (CC-PV(D+D)Z AUX)
    Blend: CC-PVDZ-JKFIT
  @DF-RKS Final Energy:  -958.25861898087237
    Total Energy =                       -958.2586189808723702
    Molecular point group: c2v
  Basis Set: CC-PV(D+D)Z
    Blend: CC-PV(D+D)Z
  Basis Set: (CC-PV(D+D)Z AUX)
    Blend: CC-PVDZ-JKFIT
  @DF-RKS Final Energy:  -958.25861775270960
    Total Energy =                       -958.2586177527095970
  Basis Set: CC-PV(D+D)Z
    Blend: CC-PV(D+D)Z
  Basis Set: (CC-PV(D+D)Z AUX)
    Blend: CC-PVDZ-JKFIT
  @DF-RKS Final Energy:  -958.25861970488290
    Total Energy =                       -958.2586197048827898
  Basis Set: CC-PV(D+D)Z
    Blend: CC-PV(D+D)Z
  Basis Set: (CC-PV(D+D)Z AUX)
    Blend: CC-PVDZ-JKFIT
  @DF-RKS Final Energy:  -958.25861950823617
    Total Energy =                       -958.2586195082362792
  @DF-RKS Final Energy:  -958.25861828890186
    Total Energy =                       -958.2586182889016300
  @DF-RKS Final Energy:  -958.25862018576424
    Total Energy =                       -958.2586201857642436
  @DF-RKS Final Energy:  -958.25861951156912
    Total Energy =                       -958.2586195115691226
  @DF-RKS Final Energy:  -958.25862035396904
    Total Energy =                       -958.2586203539690359
  @DF-RKS Final Energy:  -958.25862014692768
    Total Energy =                       -958.2586201469276830
  @DF-RKS Final Energy:  -958.25862005872909
    Total Energy =                       -958.2586200587292069
  **** Optimization is complete! (in 2 steps) ****
    Final optimized geometry and variables:
  @DF-RKS Final Energy:  -958.25862018589009
    Total Energy =                       -958.2586201858902086
  @DF-RKS Final Energy:  -958.25861951170896
    Total Energy =                       -958.2586195117089574
  @DF-RKS Final Energy:  -958.25862035396710
    Total Energy =                       -958.2586203539672169
  @DF-RKS Final Energy:  -958.25862014693837
    Total Energy =                       -958.2586201469383695
  @DF-RKS Final Energy:  -958.25862005877150
    Total Energy =                       -958.2586200587714984
  @DF-RKS Final Energy:  -958.25862018589021
    Total Energy =                       -958.2586201858902086
  @DF-RKS Final Energy:  -958.25861951170907
    Total Energy =                       -958.2586195117089574
  @DF-RKS Final Energy:  -958.25862035396744
    Total Energy =                       -958.2586203539674443
  @DF-RKS Final Energy:  -958.25862014693826
    Total Energy =                       -958.2586201469382559
  Basis Set: CC-PV(D+D)Z
    Blend: CC-PV(D+D)Z
  Basis Set: (CC-PV(D+D)Z AUX)
    Blend: CC-PVDZ-JKFIT
  @DF-RKS Final Energy:  -958.25862005877127
    Total Energy =                       -958.2586200587712710
  Basis Set: CC-PV(D+D)Z
    Blend: CC-PV(D+D)Z
  Basis Set: (CC-PV(D+D)Z AUX)
    Blend: CC-PVDZ-JKFIT
  @DF-RKS Final Energy:  -958.25862036617070
    Total Energy =                       -958.2586203661707032
  Multiplicity = 1
  Basis Set: CC-PV(D+D)Z
    Blend: CC-PV(D+D)Z
  Basis Set: (CC-PV(D+D)Z AUX)
    Blend: CC-PVDZ-JKFIT
  @DF-RKS Final Energy:  -958.25861961236001
    Total Energy =                       -958.2586196123598938
    Molecular point group: cs

    Geometry (in Angstrom), charge = 0, multiplicity = 1:

       Center              X                  Y                   Z               Mass
    ------------   -----------------  -----------------  -----------------  -----------------
         C            0.000000000000    -0.000680879423    -0.849668007961    12.000000000000
         CL           0.000000000000     1.399498321595     0.145870216861    34.968852682000
         CL           0.000000000000    -1.399264669289     0.145704007442    34.968852682000

  Charge       = 0
  Multiplicity = 1
  Basis Set: CC-PV(D+D)Z
    Blend: CC-PV(D+D)Z
  Basis Set: (CC-PV(D+D)Z AUX)
    Blend: CC-PVDZ-JKFIT

    Orbital Energies [Eh]
    ---------------------

    Doubly Occupied:

       1Ap  -101.573107     2Ap  -101.572824     3Ap   -10.436577
       4Ap    -9.603345     5Ap    -9.603030     6Ap    -7.357280
       7Ap    -7.356980     1App   -7.351177     2App   -7.350866
       8Ap    -7.347395     9Ap    -7.347094    10Ap    -1.075070
      11Ap    -0.988463    12Ap    -0.728439    13Ap    -0.576807
      14Ap    -0.531229     3App   -0.527186     4App   -0.454441
      15Ap    -0.434020    16Ap    -0.362922

  @DF-RKS Final Energy:  -958.25861987565031

   => Energetics <=

    Nuclear Repulsion Energy =            117.5034990577727996
    One-Electron Energy =               -1554.7304827281705002
    Two-Electron Energy =                 525.2597565530950305
    DFT Exchange-Correlation Energy =     -46.4569239086336836
    Empirical Dispersion Energy =           0.0000000000000000
    VV10 Nonlocal Energy =                  0.1655311502860027
    Total Energy =                       -958.2586198756503109

  Dipole Moment: [D]
     X:     0.0000      Y:    -0.0081      Z:     1.1876     Total:     1.1876

  Vibration                       7                   8                   9
  Freq [cm^-1]                 350.4420            766.5955            809.8379
  Irrep                           A1                  A1                  B2
  Reduced mass [u]             29.5021             14.2820             13.8709
  Force const [mDyne/A]         2.1347              4.9451              5.3598

  ==> Thermochemistry Components <==

  Entropy, S
    Electronic S            0.000 [cal/(mol K)]        0.000 [J/(mol K)]       0.00000000 [mEh/K] (multiplicity = 1)
    Translational S        39.124 [cal/(mol K)]      163.696 [J/(mol K)]       0.06234835 [mEh/K] (mol. weight = 81.9377 [u], P = 101325.00 [Pa])
    Rotational S           22.370 [cal/(mol K)]       93.595 [J/(mol K)]       0.03564831 [mEh/K] (symmetry no. = 2)
    Vibrational S           1.600 [cal/(mol K)]        6.694 [J/(mol K)]       0.00254963 [mEh/K]
  Total S                  63.094 [cal/(mol K)]      263.984 [J/(mol K)]       0.10054629 [mEh/K]
  Correction S              0.000 [cal/(mol K)]        0.000 [J/(mol K)]       0.00000000 [mEh/K]

  Constant volume heat capacity, Cv
    Electronic Cv           0.000 [cal/(mol K)]        0.000 [J/(mol K)]       0.00000000 [mEh/K]
    Translational Cv        2.981 [cal/(mol K)]       12.472 [J/(mol K)]       0.00475022 [mEh/K]
    Rotational Cv           2.981 [cal/(mol K)]       12.472 [J/(mol K)]       0.00475022 [mEh/K]
    Vibrational Cv          2.916 [cal/(mol K)]       12.202 [J/(mol K)]       0.00464754 [mEh/K]
  Total Cv                  8.878 [cal/(mol K)]       37.145 [J/(mol K)]       0.01414797 [mEh/K]
  Correction Cv             0.000 [cal/(mol K)]        0.000 [J/(mol K)]       0.00000000 [mEh/K]

  Constant pressure heat capacity, Cp
    Electronic Cp           0.000 [cal/(mol K)]        0.000 [J/(mol K)]       0.00000000 [mEh/K]
    Translational Cp        4.968 [cal/(mol K)]       20.786 [J/(mol K)]       0.00791703 [mEh/K]
    Rotational Cp           2.981 [cal/(mol K)]       12.472 [J/(mol K)]       0.00475022 [mEh/K]
    Vibrational Cp          2.916 [cal/(mol K)]       12.202 [J/(mol K)]       0.00464754 [mEh/K]
  Total Cp                 10.865 [cal/(mol K)]       45.460 [J/(mol K)]       0.01731478 [mEh/K]
  Correction Cp             0.000 [cal/(mol K)]        0.000 [J/(mol K)]       0.00000000 [mEh/K]

  ==> Thermochemistry Energy Analysis <==

  Raw electronic energy, E0
  Total E0, Electronic energy at well bottom at 0 [K]                 -958.25862019 [Eh]

  Zero-point energy, ZPE_vib = Sum_i nu_i / 2
    Electronic ZPE          0.000 [kcal/mol]        0.000 [kJ/mol]       0.00000000 [Eh]
    Translational ZPE       0.000 [kcal/mol]        0.000 [kJ/mol]       0.00000000 [Eh]
    Rotational ZPE          0.000 [kcal/mol]        0.000 [kJ/mol]       0.00000000 [Eh]
    Vibrational ZPE         2.755 [kcal/mol]       11.525 [kJ/mol]       0.00438975 [Eh]         963.438 [cm^-1]
  Correction ZPE            2.755 [kcal/mol]       11.525 [kJ/mol]       0.00438975 [Eh]         963.438 [cm^-1]
  Total ZPE, Electronic energy at 0 [K]                               -958.25423044 [Eh]

  Thermal Energy, E (includes ZPE)
    Electronic E            0.000 [kcal/mol]        0.000 [kJ/mol]       0.00000000 [Eh]
    Translational E         0.889 [kcal/mol]        3.718 [kJ/mol]       0.00141628 [Eh]
    Rotational E            0.889 [kcal/mol]        3.718 [kJ/mol]       0.00141628 [Eh]
    Vibrational E           3.084 [kcal/mol]       12.904 [kJ/mol]       0.00491476 [Eh]
  Correction E              4.862 [kcal/mol]       20.341 [kJ/mol]       0.00774731 [Eh]
  Total E, Electronic energy at  298.15 [K]                           -958.25087287 [Eh]

  Enthalpy, H_trans = E_trans + k_B * T
    Electronic H            0.000 [kcal/mol]        0.000 [kJ/mol]       0.00000000 [Eh]
    Translational H         1.481 [kcal/mol]        6.197 [kJ/mol]       0.00236046 [Eh]
    Rotational H            0.889 [kcal/mol]        3.718 [kJ/mol]       0.00141628 [Eh]
    Vibrational H           3.084 [kcal/mol]       12.904 [kJ/mol]       0.00491476 [Eh]
  Correction H              5.454 [kcal/mol]       22.820 [kJ/mol]       0.00869150 [Eh]
  Total H, Enthalpy at  298.15 [K]                                    -958.24992869 [Eh]

  Gibbs free energy, G = H - T * S
    Electronic G            0.000 [kcal/mol]        0.000 [kJ/mol]       0.00000000 [Eh]
    Translational G       -10.184 [kcal/mol]      -42.608 [kJ/mol]      -0.01622870 [Eh]
    Rotational G           -5.781 [kcal/mol]      -24.187 [kJ/mol]      -0.00921227 [Eh]
    Vibrational G           2.607 [kcal/mol]       10.908 [kJ/mol]       0.00415459 [Eh]
  Correction G            -13.357 [kcal/mol]      -55.887 [kJ/mol]      -0.02128638 [Eh]
  Total G, Free enthalpy at  298.15 [K]                               -958.27990657 [Eh]

*** Psi4 exiting successfully. Buy a developer a beer!
