                               Psi4 1.3.2 release

  ==> Input File <==

--------------------------------------------------------------------------
memory 144 GB

molecule {
0 1
C 0.0000000000 0.0000000000 0.0000000000
F 0.0000000000 0.0000000000 1.2971000000
F 1.2538059978 0.0000000000 -0.3323235319
}

set dynamic_level 1
set basis cc-pV(D+d)Z

optimize("wB97X-V")
frequencies("wB97X-V")
--------------------------------------------------------------------------

    Molecular point group: c2v
  Charge       = 0
  Multiplicity = 1
  Basis Set: CC-PV(D+D)Z
    Blend: CC-PV(D+D)Z
  Basis Set: (CC-PV(D+D)Z AUX)
    Blend: CC-PVDZ-JKFIT
  @DF-RKS Final Energy:  -237.63391529634339
    Total Energy =                       -237.6339152963433889
    Molecular point group: c2v
  Basis Set: CC-PV(D+D)Z
    Blend: CC-PV(D+D)Z
  Basis Set: (CC-PV(D+D)Z AUX)
    Blend: CC-PVDZ-JKFIT
  @DF-RKS Final Energy:  -237.63394224802764
    Total Energy =                       -237.6339422480276369
  Basis Set: CC-PV(D+D)Z
    Blend: CC-PV(D+D)Z
  Basis Set: (CC-PV(D+D)Z AUX)
    Blend: CC-PVDZ-JKFIT
  @DF-RKS Final Energy:  -237.63388692335209
    Total Energy =                       -237.6338869233520938
  Basis Set: CC-PV(D+D)Z
    Blend: CC-PV(D+D)Z
  Basis Set: (CC-PV(D+D)Z AUX)
    Blend: CC-PVDZ-JKFIT
  @DF-RKS Final Energy:  -237.63390035503431
    Total Energy =                       -237.6339003550343136
  @DF-RKS Final Energy:  -237.63392960306703
    Total Energy =                       -237.6339296030670027
  @DF-RKS Final Energy:  -237.63420658952791
    Total Energy =                       -237.6342065895278779
  @DF-RKS Final Energy:  -237.63421219466431
    Total Energy =                       -237.6342121946643431
  @DF-RKS Final Energy:  -237.63419961599513
    Total Energy =                       -237.6341996159951293
  @DF-RKS Final Energy:  -237.63420173784348
    Total Energy =                       -237.6342017378434548
  @DF-RKS Final Energy:  -237.63421083545185
    Total Energy =                       -237.6342108354518530
  @DF-RKS Final Energy:  -237.63422484172781
    Total Energy =                       -237.6342248417278142
  @DF-RKS Final Energy:  -237.63422536219250
    Total Energy =                       -237.6342253621925238
  @DF-RKS Final Energy:  -237.63422297502103
    Total Energy =                       -237.6342229750210322
  @DF-RKS Final Energy:  -237.63422597364686
    Total Energy =                       -237.6342259736468634
  @DF-RKS Final Energy:  -237.63422312077529
    Total Energy =                       -237.6342231207752889
  @DF-RKS Final Energy:  -237.63422747791523
    Total Energy =                       -237.6342274779152319
  @DF-RKS Final Energy:  -237.63422595938229
    Total Energy =                       -237.6342259593822916
  @DF-RKS Final Energy:  -237.63422764756928
    Total Energy =                       -237.6342276475692472
  @DF-RKS Final Energy:  -237.63422648356817
    Total Energy =                       -237.6342264835681419
  @DF-RKS Final Energy:  -237.63422787757094
    Total Energy =                       -237.6342278775709644
  @DF-RKS Final Energy:  -237.63422866333300
    Total Energy =                       -237.6342286633330332
  @DF-RKS Final Energy:  -237.63422799425032
    Total Energy =                       -237.6342279942503239
  @DF-RKS Final Energy:  -237.63422798409928
    Total Energy =                       -237.6342279840992830
  @DF-RKS Final Energy:  -237.63422836987223
    Total Energy =                       -237.6342283698721758
  @DF-RKS Final Energy:  -237.63422836399087
    Total Energy =                       -237.6342283639908715
  **** Optimization is complete! (in 5 steps) ****
    Final optimized geometry and variables:
  @DF-RKS Final Energy:  -237.63422866333295
    Total Energy =                       -237.6342286633329195
  @DF-RKS Final Energy:  -237.63422799425021
    Total Energy =                       -237.6342279942502103
  @DF-RKS Final Energy:  -237.63422798411483
    Total Energy =                       -237.6342279841148581
  @DF-RKS Final Energy:  -237.63422836987229
    Total Energy =                       -237.6342283698723179
  @DF-RKS Final Energy:  -237.63422836399090
    Total Energy =                       -237.6342283639908715
  @DF-RKS Final Energy:  -237.63422866333300
    Total Energy =                       -237.6342286633330048
  @DF-RKS Final Energy:  -237.63422799425061
    Total Energy =                       -237.6342279942506082
  @DF-RKS Final Energy:  -237.63422798411489
    Total Energy =                       -237.6342279841148581
  @DF-RKS Final Energy:  -237.63422836987235
    Total Energy =                       -237.6342283698723463
  Basis Set: CC-PV(D+D)Z
    Blend: CC-PV(D+D)Z
  Basis Set: (CC-PV(D+D)Z AUX)
    Blend: CC-PVDZ-JKFIT
  @DF-RKS Final Energy:  -237.63422836399090
    Total Energy =                       -237.6342283639908999
  Basis Set: CC-PV(D+D)Z
    Blend: CC-PV(D+D)Z
  Basis Set: (CC-PV(D+D)Z AUX)
    Blend: CC-PVDZ-JKFIT
  @DF-RKS Final Energy:  -237.63422807586556
    Total Energy =                       -237.6342280758655647
  Multiplicity = 1
  Basis Set: CC-PV(D+D)Z
    Blend: CC-PV(D+D)Z
  Basis Set: (CC-PV(D+D)Z AUX)
    Blend: CC-PVDZ-JKFIT
  @DF-RKS Final Energy:  -237.63422809103852
    Total Energy =                       -237.6342280910384943
    Molecular point group: cs

    Geometry (in Angstrom), charge = 0, multiplicity = 1:

       Center              X                  Y                   Z               Mass
    ------------   -----------------  -----------------  -----------------  -----------------
         C            0.000000000000    -0.000622097072    -0.611873830173    12.000000000000
         F            0.000000000000     1.033744801068     0.193392600225    18.998403162730
         F            0.000000000000    -1.033351864630     0.193086510634    18.998403162730

  Charge       = 0
  Multiplicity = 1
  Basis Set: CC-PV(D+D)Z
    Blend: CC-PV(D+D)Z
  Basis Set: (CC-PV(D+D)Z AUX)
    Blend: CC-PVDZ-JKFIT

    Orbital Energies [Eh]
    ---------------------

    Doubly Occupied:

       1Ap   -24.845925     2Ap   -24.845265     3Ap   -10.478895
       4Ap    -1.461507     5Ap    -1.383409     6Ap    -0.820055
       7Ap    -0.704347     1App   -0.661808     8Ap    -0.656758
       2App   -0.578639     9Ap    -0.552100    10Ap    -0.408437

  @DF-RKS Final Energy:  -237.63422801388788

   => Energetics <=

    Nuclear Repulsion Energy =             64.3586630127413883
    One-Electron Energy =                -456.4921914470730258
    Two-Electron Energy =                 173.2447978136881375
    DFT Exchange-Correlation Energy =     -18.8462659130626591
    Empirical Dispersion Energy =           0.0000000000000000
    VV10 Nonlocal Energy =                  0.1007685198182970
    Total Energy =                       -237.6342280138878778

  Dipole Moment: [D]
     X:     0.0000      Y:    -0.0078      Z:     0.6105     Total:     0.6105

  Vibration                       7                   8                   9
  Freq [cm^-1]                 671.9072           1171.7110           1265.0124
  Irrep                           A1                  B2                  A1
  Reduced mass [u]             17.7960             13.6987             13.8104
  Force const [mDyne/A]         4.7336             11.0808             13.0211

  ==> Thermochemistry Components <==

  Entropy, S
    Electronic S            0.000 [cal/(mol K)]        0.000 [J/(mol K)]       0.00000000 [mEh/K] (multiplicity = 1)
    Translational S        37.652 [cal/(mol K)]      157.535 [J/(mol K)]       0.06000175 [mEh/K] (mol. weight = 49.9968 [u], P = 101325.00 [Pa])
    Rotational S           19.480 [cal/(mol K)]       81.504 [J/(mol K)]       0.03104314 [mEh/K] (symmetry no. = 2)
    Vibrational S           0.419 [cal/(mol K)]        1.754 [J/(mol K)]       0.00066807 [mEh/K]
  Total S                  57.551 [cal/(mol K)]      240.792 [J/(mol K)]       0.09171296 [mEh/K]
  Correction S              0.000 [cal/(mol K)]        0.000 [J/(mol K)]       0.00000000 [mEh/K]

  Constant volume heat capacity, Cv
    Electronic Cv           0.000 [cal/(mol K)]        0.000 [J/(mol K)]       0.00000000 [mEh/K]
    Translational Cv        2.981 [cal/(mol K)]       12.472 [J/(mol K)]       0.00475022 [mEh/K]
    Rotational Cv           2.981 [cal/(mol K)]       12.472 [J/(mol K)]       0.00475022 [mEh/K]
    Vibrational Cv          1.274 [cal/(mol K)]        5.331 [J/(mol K)]       0.00203045 [mEh/K]
  Total Cv                  7.236 [cal/(mol K)]       30.274 [J/(mol K)]       0.01153088 [mEh/K]
  Correction Cv             0.000 [cal/(mol K)]        0.000 [J/(mol K)]       0.00000000 [mEh/K]

  Constant pressure heat capacity, Cp
    Electronic Cp           0.000 [cal/(mol K)]        0.000 [J/(mol K)]       0.00000000 [mEh/K]
    Translational Cp        4.968 [cal/(mol K)]       20.786 [J/(mol K)]       0.00791703 [mEh/K]
    Rotational Cp           2.981 [cal/(mol K)]       12.472 [J/(mol K)]       0.00475022 [mEh/K]
    Vibrational Cp          1.274 [cal/(mol K)]        5.331 [J/(mol K)]       0.00203045 [mEh/K]
  Total Cp                  9.223 [cal/(mol K)]       38.589 [J/(mol K)]       0.01469769 [mEh/K]
  Correction Cp             0.000 [cal/(mol K)]        0.000 [J/(mol K)]       0.00000000 [mEh/K]

  ==> Thermochemistry Energy Analysis <==

  Raw electronic energy, E0
  Total E0, Electronic energy at well bottom at 0 [K]                 -237.63422866 [Eh]

  Zero-point energy, ZPE_vib = Sum_i nu_i / 2
    Electronic ZPE          0.000 [kcal/mol]        0.000 [kJ/mol]       0.00000000 [Eh]
    Translational ZPE       0.000 [kcal/mol]        0.000 [kJ/mol]       0.00000000 [Eh]
    Rotational ZPE          0.000 [kcal/mol]        0.000 [kJ/mol]       0.00000000 [Eh]
    Vibrational ZPE         4.444 [kcal/mol]       18.594 [kJ/mol]       0.00708198 [Eh]        1554.315 [cm^-1]
  Correction ZPE            4.444 [kcal/mol]       18.594 [kJ/mol]       0.00708198 [Eh]        1554.315 [cm^-1]
  Total ZPE, Electronic energy at 0 [K]                               -237.62714668 [Eh]

  Thermal Energy, E (includes ZPE)
    Electronic E            0.000 [kcal/mol]        0.000 [kJ/mol]       0.00000000 [Eh]
    Translational E         0.889 [kcal/mol]        3.718 [kJ/mol]       0.00141628 [Eh]
    Rotational E            0.889 [kcal/mol]        3.718 [kJ/mol]       0.00141628 [Eh]
    Vibrational E           4.542 [kcal/mol]       19.004 [kJ/mol]       0.00723812 [Eh]
  Correction E              6.319 [kcal/mol]       26.441 [kJ/mol]       0.01007067 [Eh]
  Total E, Electronic energy at  298.15 [K]                           -237.62415799 [Eh]

  Enthalpy, H_trans = E_trans + k_B * T
    Electronic H            0.000 [kcal/mol]        0.000 [kJ/mol]       0.00000000 [Eh]
    Translational H         1.481 [kcal/mol]        6.197 [kJ/mol]       0.00236046 [Eh]
    Rotational H            0.889 [kcal/mol]        3.718 [kJ/mol]       0.00141628 [Eh]
    Vibrational H           4.542 [kcal/mol]       19.004 [kJ/mol]       0.00723812 [Eh]
  Correction H              6.912 [kcal/mol]       28.919 [kJ/mol]       0.01101485 [Eh]
  Total H, Enthalpy at  298.15 [K]                                    -237.62321381 [Eh]

  Gibbs free energy, G = H - T * S
    Electronic G            0.000 [kcal/mol]        0.000 [kJ/mol]       0.00000000 [Eh]
    Translational G        -9.745 [kcal/mol]      -40.772 [kJ/mol]      -0.01552906 [Eh]
    Rotational G           -4.919 [kcal/mol]      -20.582 [kJ/mol]      -0.00783923 [Eh]
    Vibrational G           4.417 [kcal/mol]       18.481 [kJ/mol]       0.00703893 [Eh]
  Correction G            -10.247 [kcal/mol]      -42.873 [kJ/mol]      -0.01632936 [Eh]
  Total G, Free enthalpy at  298.15 [K]                               -237.65055803 [Eh]

*** Psi4 exiting successfully. Buy a developer a beer!
