                               Psi4 1.3.2 release

  ==> Input File <==

--------------------------------------------------------------------------
memory 144 GB

molecule {
0 1
H 0.0000000000 0.0000000000 0.0000000000
C 0.0000000000 0.0000000000 1.0879000000
H 1.0256819563 0.0000000000 1.4505333333
H -0.5128409782 0.8882666304 1.4505333333
H -0.5128409782 -0.8882666304 1.4505333333
}

set dynamic_level 1
set basis cc-pV(D+d)Z
set opt_type irc
set full_hess_every 0

optimize("wB97X-V")
frequencies("wB97X-V")
--------------------------------------------------------------------------

    Molecular point group: c2v
  Charge       = 0
  Multiplicity = 1
  Basis Set: CC-PV(D+D)Z
    Blend: CC-PV(D+D)Z
  Basis Set: (CC-PV(D+D)Z AUX)
    Blend: CC-PVDZ-JKFIT
  @DF-RKS Final Energy:   -40.49739182073907
    Total Energy =                        -40.4973918207390682
    Molecular point group: c2v
  Basis Set: CC-PV(D+D)Z
    Blend: CC-PV(D+D)Z
  Basis Set: (CC-PV(D+D)Z AUX)
    Blend: CC-PVDZ-JKFIT
  @DF-RKS Final Energy:   -40.49734009577736
    Total Energy =                        -40.4973400957773606
  Basis Set: CC-PV(D+D)Z
    Blend: CC-PV(D+D)Z
  Basis Set: (CC-PV(D+D)Z AUX)
    Blend: CC-PVDZ-JKFIT
  @DF-RKS Final Energy:   -40.49743650543743
    Total Energy =                        -40.4974365054374346
  Basis Set: CC-PV(D+D)Z
    Blend: CC-PV(D+D)Z
  Basis Set: (CC-PV(D+D)Z AUX)
    Blend: CC-PVDZ-JKFIT
  @DF-RKS Final Energy:   -40.49742591108296
    Total Energy =                        -40.4974259110829635
  @DF-RKS Final Energy:   -40.49735301625771
    Total Energy =                        -40.4973530162577120
  @DF-RKS Final Energy:   -40.49742098128284
    Total Energy =                        -40.4974209812828292
  @DF-RKS Final Energy:   -40.49735791383527
    Total Energy =                        -40.4973579138352591
  @DF-RKS Final Energy:   -40.49734009576132
    Total Energy =                        -40.4973400957613165
  @DF-RKS Final Energy:   -40.49743650548808
    Total Energy =                        -40.4974365054880820
  @DF-RKS Final Energy:   -40.49739182073903
    Total Energy =                        -40.4973918207390327
  @DF-RKS Final Energy:   -40.49734009577739
    Total Energy =                        -40.4973400957773961
  @DF-RKS Final Energy:   -40.49743650543744
    Total Energy =                        -40.4974365054374346
  @DF-RKS Final Energy:   -40.49742591108298
    Total Energy =                        -40.4974259110829848
  @DF-RKS Final Energy:   -40.49735301625773
    Total Energy =                        -40.4973530162577262
  @DF-RKS Final Energy:   -40.49742098128284
    Total Energy =                        -40.4974209812828363
  @DF-RKS Final Energy:   -40.49735791383524
    Total Energy =                        -40.4973579138352306
  @DF-RKS Final Energy:   -40.49734009576129
    Total Energy =                        -40.4973400957612739
  @DF-RKS Final Energy:   -40.49743650548808
    Total Energy =                        -40.4974365054880820
  @DF-RKS Final Energy:   -40.49739182073908
    Total Energy =                        -40.4973918207390753
  @DF-RKS Final Energy:   -40.49734009577741
    Total Energy =                        -40.4973400957774103

  Vibration                       1                   8                   9
  Freq [cm^-1]                280.8105i           1246.6836           1256.2195
  Irrep                           A2                  B1                  B2
  Reduced mass [u]              1.0078              1.1793              1.1762
  Force const [mDyne/A]        -0.0468              1.0799              1.0936

  Vibration                       10                  11                  12
  Freq [cm^-1]                1286.1777           1527.9480           3158.4083
  Irrep                           A1                  A1                  A1
  Reduced mass [u]              1.1777              1.0078              1.0078
  Force const [mDyne/A]         1.1478              1.3863              5.9234

  Vibration                       13                  14                  15
  Freq [cm^-1]                3286.4393           3290.0350           3304.2450
  Irrep                           B2                  B1                  A1
  Reduced mass [u]              1.1041              1.1014              1.1028
  Force const [mDyne/A]         7.0259              7.0243              7.0940

    Irrep   Nso     Nmo     Nalpha   Nbeta   Ndocc  Nsocc

    Irrep   Nso     Nmo     Nalpha   Nbeta   Ndocc  Nsocc

    Irrep   Nso     Nmo     Nalpha   Nbeta   Ndocc  Nsocc

    Irrep   Nso     Nmo     Nalpha   Nbeta   Ndocc  Nsocc

    Irrep   Nso     Nmo     Nalpha   Nbeta   Ndocc  Nsocc

    Irrep   Nso     Nmo     Nalpha   Nbeta   Ndocc  Nsocc

    Irrep   Nso     Nmo     Nalpha   Nbeta   Ndocc  Nsocc

    Irrep   Nso     Nmo     Nalpha   Nbeta   Ndocc  Nsocc

    Irrep   Nso     Nmo     Nalpha   Nbeta   Ndocc  Nsocc

    Irrep   Nso     Nmo     Nalpha   Nbeta   Ndocc  Nsocc

    Irrep   Nso     Nmo     Nalpha   Nbeta   Ndocc  Nsocc

    Irrep   Nso     Nmo     Nalpha   Nbeta   Ndocc  Nsocc

    Irrep   Nso     Nmo     Nalpha   Nbeta   Ndocc  Nsocc

    Irrep   Nso     Nmo     Nalpha   Nbeta   Ndocc  Nsocc

    Irrep   Nso     Nmo     Nalpha   Nbeta   Ndocc  Nsocc

    Irrep   Nso     Nmo     Nalpha   Nbeta   Ndocc  Nsocc

    Irrep   Nso     Nmo     Nalpha   Nbeta   Ndocc  Nsocc

    Irrep   Nso     Nmo     Nalpha   Nbeta   Ndocc  Nsocc

    Irrep   Nso     Nmo     Nalpha   Nbeta   Ndocc  Nsocc

    Irrep   Nso     Nmo     Nalpha   Nbeta   Ndocc  Nsocc

    Irrep   Nso     Nmo     Nalpha   Nbeta   Ndocc  Nsocc

    Irrep   Nso     Nmo     Nalpha   Nbeta   Ndocc  Nsocc

    Irrep   Nso     Nmo     Nalpha   Nbeta   Ndocc  Nsocc

    Irrep   Nso     Nmo     Nalpha   Nbeta   Ndocc  Nsocc

    Irrep   Nso     Nmo     Nalpha   Nbeta   Ndocc  Nsocc

    Irrep   Nso     Nmo     Nalpha   Nbeta   Ndocc  Nsocc

    Irrep   Nso     Nmo     Nalpha   Nbeta   Ndocc  Nsocc

    Irrep   Nso     Nmo     Nalpha   Nbeta   Ndocc  Nsocc

    Irrep   Nso     Nmo     Nalpha   Nbeta   Ndocc  Nsocc

    Irrep   Nso     Nmo     Nalpha   Nbeta   Ndocc  Nsocc

    Irrep   Nso     Nmo     Nalpha   Nbeta   Ndocc  Nsocc

    Irrep   Nso     Nmo     Nalpha   Nbeta   Ndocc  Nsocc

    Irrep   Nso     Nmo     Nalpha   Nbeta   Ndocc  Nsocc

    Irrep   Nso     Nmo     Nalpha   Nbeta   Ndocc  Nsocc

    Irrep   Nso     Nmo     Nalpha   Nbeta   Ndocc  Nsocc

    Irrep   Nso     Nmo     Nalpha   Nbeta   Ndocc  Nsocc

    Irrep   Nso     Nmo     Nalpha   Nbeta   Ndocc  Nsocc

    Irrep   Nso     Nmo     Nalpha   Nbeta   Ndocc  Nsocc

    Irrep   Nso     Nmo     Nalpha   Nbeta   Ndocc  Nsocc

    Irrep   Nso     Nmo     Nalpha   Nbeta   Ndocc  Nsocc

    Irrep   Nso     Nmo     Nalpha   Nbeta   Ndocc  Nsocc

    Irrep   Nso     Nmo     Nalpha   Nbeta   Ndocc  Nsocc

    Irrep   Nso     Nmo     Nalpha   Nbeta   Ndocc  Nsocc

    Irrep   Nso     Nmo     Nalpha   Nbeta   Ndocc  Nsocc

    Irrep   Nso     Nmo     Nalpha   Nbeta   Ndocc  Nsocc

    Irrep   Nso     Nmo     Nalpha   Nbeta   Ndocc  Nsocc

    Irrep   Nso     Nmo     Nalpha   Nbeta   Ndocc  Nsocc

    Irrep   Nso     Nmo     Nalpha   Nbeta   Ndocc  Nsocc

    Irrep   Nso     Nmo     Nalpha   Nbeta   Ndocc  Nsocc

    Irrep   Nso     Nmo     Nalpha   Nbeta   Ndocc  Nsocc

    Irrep   Nso     Nmo     Nalpha   Nbeta   Ndocc  Nsocc

    Irrep   Nso     Nmo     Nalpha   Nbeta   Ndocc  Nsocc

    Irrep   Nso     Nmo     Nalpha   Nbeta   Ndocc  Nsocc

    Irrep   Nso     Nmo     Nalpha   Nbeta   Ndocc  Nsocc

    Irrep   Nso     Nmo     Nalpha   Nbeta   Ndocc  Nsocc

    Irrep   Nso     Nmo     Nalpha   Nbeta   Ndocc  Nsocc

    Irrep   Nso     Nmo     Nalpha   Nbeta   Ndocc  Nsocc

    Irrep   Nso     Nmo     Nalpha   Nbeta   Ndocc  Nsocc

    Irrep   Nso     Nmo     Nalpha   Nbeta   Ndocc  Nsocc

    Irrep   Nso     Nmo     Nalpha   Nbeta   Ndocc  Nsocc

    Irrep   Nso     Nmo     Nalpha   Nbeta   Ndocc  Nsocc

    Irrep   Nso     Nmo     Nalpha   Nbeta   Ndocc  Nsocc

    Irrep   Nso     Nmo     Nalpha   Nbeta   Ndocc  Nsocc

    Irrep   Nso     Nmo     Nalpha   Nbeta   Ndocc  Nsocc

    Irrep   Nso     Nmo     Nalpha   Nbeta   Ndocc  Nsocc

    Irrep   Nso     Nmo     Nalpha   Nbeta   Ndocc  Nsocc

    Irrep   Nso     Nmo     Nalpha   Nbeta   Ndocc  Nsocc

    Irrep   Nso     Nmo     Nalpha   Nbeta   Ndocc  Nsocc

    Irrep   Nso     Nmo     Nalpha   Nbeta   Ndocc  Nsocc

    Irrep   Nso     Nmo     Nalpha   Nbeta   Ndocc  Nsocc

    Irrep   Nso     Nmo     Nalpha   Nbeta   Ndocc  Nsocc

    Irrep   Nso     Nmo     Nalpha   Nbeta   Ndocc  Nsocc

    Irrep   Nso     Nmo     Nalpha   Nbeta   Ndocc  Nsocc

    Irrep   Nso     Nmo     Nalpha   Nbeta   Ndocc  Nsocc

    Irrep   Nso     Nmo     Nalpha   Nbeta   Ndocc  Nsocc

    Irrep   Nso     Nmo     Nalpha   Nbeta   Ndocc  Nsocc

    Irrep   Nso     Nmo     Nalpha   Nbeta   Ndocc  Nsocc

    Irrep   Nso     Nmo     Nalpha   Nbeta   Ndocc  Nsocc

    Irrep   Nso     Nmo     Nalpha   Nbeta   Ndocc  Nsocc

    Irrep   Nso     Nmo     Nalpha   Nbeta   Ndocc  Nsocc

    Irrep   Nso     Nmo     Nalpha   Nbeta   Ndocc  Nsocc

    Irrep   Nso     Nmo     Nalpha   Nbeta   Ndocc  Nsocc

    Irrep   Nso     Nmo     Nalpha   Nbeta   Ndocc  Nsocc

    Irrep   Nso     Nmo     Nalpha   Nbeta   Ndocc  Nsocc

    Irrep   Nso     Nmo     Nalpha   Nbeta   Ndocc  Nsocc

    Irrep   Nso     Nmo     Nalpha   Nbeta   Ndocc  Nsocc

    Irrep   Nso     Nmo     Nalpha   Nbeta   Ndocc  Nsocc

    Irrep   Nso     Nmo     Nalpha   Nbeta   Ndocc  Nsocc

    Irrep   Nso     Nmo     Nalpha   Nbeta   Ndocc  Nsocc

    Irrep   Nso     Nmo     Nalpha   Nbeta   Ndocc  Nsocc

    Irrep   Nso     Nmo     Nalpha   Nbeta   Ndocc  Nsocc

    Irrep   Nso     Nmo     Nalpha   Nbeta   Ndocc  Nsocc

    Irrep   Nso     Nmo     Nalpha   Nbeta   Ndocc  Nsocc

    Irrep   Nso     Nmo     Nalpha   Nbeta   Ndocc  Nsocc

    Irrep   Nso     Nmo     Nalpha   Nbeta   Ndocc  Nsocc

    Irrep   Nso     Nmo     Nalpha   Nbeta   Ndocc  Nsocc

    Irrep   Nso     Nmo     Nalpha   Nbeta   Ndocc  Nsocc

    Irrep   Nso     Nmo     Nalpha   Nbeta   Ndocc  Nsocc

    Irrep   Nso     Nmo     Nalpha   Nbeta   Ndocc  Nsocc

    Irrep   Nso     Nmo     Nalpha   Nbeta   Ndocc  Nsocc

    Irrep   Nso     Nmo     Nalpha   Nbeta   Ndocc  Nsocc

    Irrep   Nso     Nmo     Nalpha   Nbeta   Ndocc  Nsocc

    Irrep   Nso     Nmo     Nalpha   Nbeta   Ndocc  Nsocc

    Irrep   Nso     Nmo     Nalpha   Nbeta   Ndocc  Nsocc

    Irrep   Nso     Nmo     Nalpha   Nbeta   Ndocc  Nsocc

    Irrep   Nso     Nmo     Nalpha   Nbeta   Ndocc  Nsocc

    Irrep   Nso     Nmo     Nalpha   Nbeta   Ndocc  Nsocc

    Irrep   Nso     Nmo     Nalpha   Nbeta   Ndocc  Nsocc

    Irrep   Nso     Nmo     Nalpha   Nbeta   Ndocc  Nsocc

    Irrep   Nso     Nmo     Nalpha   Nbeta   Ndocc  Nsocc

    Irrep   Nso     Nmo     Nalpha   Nbeta   Ndocc  Nsocc

    Irrep   Nso     Nmo     Nalpha   Nbeta   Ndocc  Nsocc

    Irrep   Nso     Nmo     Nalpha   Nbeta   Ndocc  Nsocc

    Irrep   Nso     Nmo     Nalpha   Nbeta   Ndocc  Nsocc

    Irrep   Nso     Nmo     Nalpha   Nbeta   Ndocc  Nsocc

    Irrep   Nso     Nmo     Nalpha   Nbeta   Ndocc  Nsocc

    Irrep   Nso     Nmo     Nalpha   Nbeta   Ndocc  Nsocc

    Irrep   Nso     Nmo     Nalpha   Nbeta   Ndocc  Nsocc

    Irrep   Nso     Nmo     Nalpha   Nbeta   Ndocc  Nsocc

    Irrep   Nso     Nmo     Nalpha   Nbeta   Ndocc  Nsocc

    Irrep   Nso     Nmo     Nalpha   Nbeta   Ndocc  Nsocc

    Irrep   Nso     Nmo     Nalpha   Nbeta   Ndocc  Nsocc

    Irrep   Nso     Nmo     Nalpha   Nbeta   Ndocc  Nsocc

    Irrep   Nso     Nmo     Nalpha   Nbeta   Ndocc  Nsocc

    Irrep   Nso     Nmo     Nalpha   Nbeta   Ndocc  Nsocc

    Irrep   Nso     Nmo     Nalpha   Nbeta   Ndocc  Nsocc

    Irrep   Nso     Nmo     Nalpha   Nbeta   Ndocc  Nsocc

    Irrep   Nso     Nmo     Nalpha   Nbeta   Ndocc  Nsocc

    Irrep   Nso     Nmo     Nalpha   Nbeta   Ndocc  Nsocc

    Irrep   Nso     Nmo     Nalpha   Nbeta   Ndocc  Nsocc

    Irrep   Nso     Nmo     Nalpha   Nbeta   Ndocc  Nsocc

    Irrep   Nso     Nmo     Nalpha   Nbeta   Ndocc  Nsocc

    Irrep   Nso     Nmo     Nalpha   Nbeta   Ndocc  Nsocc

    Irrep   Nso     Nmo     Nalpha   Nbeta   Ndocc  Nsocc

    Irrep   Nso     Nmo     Nalpha   Nbeta   Ndocc  Nsocc

    Irrep   Nso     Nmo     Nalpha   Nbeta   Ndocc  Nsocc

    Irrep   Nso     Nmo     Nalpha   Nbeta   Ndocc  Nsocc

    Irrep   Nso     Nmo     Nalpha   Nbeta   Ndocc  Nsocc

    Irrep   Nso     Nmo     Nalpha   Nbeta   Ndocc  Nsocc

    Irrep   Nso     Nmo     Nalpha   Nbeta   Ndocc  Nsocc

    Irrep   Nso     Nmo     Nalpha   Nbeta   Ndocc  Nsocc

    Irrep   Nso     Nmo     Nalpha   Nbeta   Ndocc  Nsocc

    Irrep   Nso     Nmo     Nalpha   Nbeta   Ndocc  Nsocc

    Irrep   Nso     Nmo     Nalpha   Nbeta   Ndocc  Nsocc

    Irrep   Nso     Nmo     Nalpha   Nbeta   Ndocc  Nsocc

    Irrep   Nso     Nmo     Nalpha   Nbeta   Ndocc  Nsocc

    Irrep   Nso     Nmo     Nalpha   Nbeta   Ndocc  Nsocc

    Irrep   Nso     Nmo     Nalpha   Nbeta   Ndocc  Nsocc

    Irrep   Nso     Nmo     Nalpha   Nbeta   Ndocc  Nsocc

    Irrep   Nso     Nmo     Nalpha   Nbeta   Ndocc  Nsocc

    Irrep   Nso     Nmo     Nalpha   Nbeta   Ndocc  Nsocc

    Irrep   Nso     Nmo     Nalpha   Nbeta   Ndocc  Nsocc

    Irrep   Nso     Nmo     Nalpha   Nbeta   Ndocc  Nsocc

    Irrep   Nso     Nmo     Nalpha   Nbeta   Ndocc  Nsocc

    Irrep   Nso     Nmo     Nalpha   Nbeta   Ndocc  Nsocc

    Irrep   Nso     Nmo     Nalpha   Nbeta   Ndocc  Nsocc

    Irrep   Nso     Nmo     Nalpha   Nbeta   Ndocc  Nsocc

    Irrep   Nso     Nmo     Nalpha   Nbeta   Ndocc  Nsocc

    Irrep   Nso     Nmo     Nalpha   Nbeta   Ndocc  Nsocc

    Irrep   Nso     Nmo     Nalpha   Nbeta   Ndocc  Nsocc

    Irrep   Nso     Nmo     Nalpha   Nbeta   Ndocc  Nsocc

    Irrep   Nso     Nmo     Nalpha   Nbeta   Ndocc  Nsocc

    Irrep   Nso     Nmo     Nalpha   Nbeta   Ndocc  Nsocc

    Irrep   Nso     Nmo     Nalpha   Nbeta   Ndocc  Nsocc

    Irrep   Nso     Nmo     Nalpha   Nbeta   Ndocc  Nsocc

    Irrep   Nso     Nmo     Nalpha   Nbeta   Ndocc  Nsocc

    Irrep   Nso     Nmo     Nalpha   Nbeta   Ndocc  Nsocc

    Irrep   Nso     Nmo     Nalpha   Nbeta   Ndocc  Nsocc

    Irrep   Nso     Nmo     Nalpha   Nbeta   Ndocc  Nsocc

    Irrep   Nso     Nmo     Nalpha   Nbeta   Ndocc  Nsocc

    Irrep   Nso     Nmo     Nalpha   Nbeta   Ndocc  Nsocc

    Irrep   Nso     Nmo     Nalpha   Nbeta   Ndocc  Nsocc

    Irrep   Nso     Nmo     Nalpha   Nbeta   Ndocc  Nsocc

    Irrep   Nso     Nmo     Nalpha   Nbeta   Ndocc  Nsocc

    Irrep   Nso     Nmo     Nalpha   Nbeta   Ndocc  Nsocc

    Irrep   Nso     Nmo     Nalpha   Nbeta   Ndocc  Nsocc

    Irrep   Nso     Nmo     Nalpha   Nbeta   Ndocc  Nsocc

    Irrep   Nso     Nmo     Nalpha   Nbeta   Ndocc  Nsocc

    Irrep   Nso     Nmo     Nalpha   Nbeta   Ndocc  Nsocc

    Irrep   Nso     Nmo     Nalpha   Nbeta   Ndocc  Nsocc

    Irrep   Nso     Nmo     Nalpha   Nbeta   Ndocc  Nsocc

    Irrep   Nso     Nmo     Nalpha   Nbeta   Ndocc  Nsocc

    Irrep   Nso     Nmo     Nalpha   Nbeta   Ndocc  Nsocc

    Irrep   Nso     Nmo     Nalpha   Nbeta   Ndocc  Nsocc

    Irrep   Nso     Nmo     Nalpha   Nbeta   Ndocc  Nsocc

    Irrep   Nso     Nmo     Nalpha   Nbeta   Ndocc  Nsocc

    Irrep   Nso     Nmo     Nalpha   Nbeta   Ndocc  Nsocc

    Irrep   Nso     Nmo     Nalpha   Nbeta   Ndocc  Nsocc

    Irrep   Nso     Nmo     Nalpha   Nbeta   Ndocc  Nsocc

    Irrep   Nso     Nmo     Nalpha   Nbeta   Ndocc  Nsocc

    Irrep   Nso     Nmo     Nalpha   Nbeta   Ndocc  Nsocc

    Irrep   Nso     Nmo     Nalpha   Nbeta   Ndocc  Nsocc

    Irrep   Nso     Nmo     Nalpha   Nbeta   Ndocc  Nsocc

    Irrep   Nso     Nmo     Nalpha   Nbeta   Ndocc  Nsocc

    Irrep   Nso     Nmo     Nalpha   Nbeta   Ndocc  Nsocc

    Irrep   Nso     Nmo     Nalpha   Nbeta   Ndocc  Nsocc

    Irrep   Nso     Nmo     Nalpha   Nbeta   Ndocc  Nsocc

    Irrep   Nso     Nmo     Nalpha   Nbeta   Ndocc  Nsocc

    Irrep   Nso     Nmo     Nalpha   Nbeta   Ndocc  Nsocc

    Irrep   Nso     Nmo     Nalpha   Nbeta   Ndocc  Nsocc

    Irrep   Nso     Nmo     Nalpha   Nbeta   Ndocc  Nsocc

    Irrep   Nso     Nmo     Nalpha   Nbeta   Ndocc  Nsocc

    Irrep   Nso     Nmo     Nalpha   Nbeta   Ndocc  Nsocc

    Irrep   Nso     Nmo     Nalpha   Nbeta   Ndocc  Nsocc

    Irrep   Nso     Nmo     Nalpha   Nbeta   Ndocc  Nsocc

    Irrep   Nso     Nmo     Nalpha   Nbeta   Ndocc  Nsocc

    Irrep   Nso     Nmo     Nalpha   Nbeta   Ndocc  Nsocc

    Irrep   Nso     Nmo     Nalpha   Nbeta   Ndocc  Nsocc

    Irrep   Nso     Nmo     Nalpha   Nbeta   Ndocc  Nsocc

    Irrep   Nso     Nmo     Nalpha   Nbeta   Ndocc  Nsocc

    Irrep   Nso     Nmo     Nalpha   Nbeta   Ndocc  Nsocc

    Irrep   Nso     Nmo     Nalpha   Nbeta   Ndocc  Nsocc

    Irrep   Nso     Nmo     Nalpha   Nbeta   Ndocc  Nsocc

    Irrep   Nso     Nmo     Nalpha   Nbeta   Ndocc  Nsocc

    Irrep   Nso     Nmo     Nalpha   Nbeta   Ndocc  Nsocc

    Irrep   Nso     Nmo     Nalpha   Nbeta   Ndocc  Nsocc

	 **** Optimization is complete! ****
    Final optimized geometry and variables:

    Irrep   Nso     Nmo     Nalpha   Nbeta   Ndocc  Nsocc

    Irrep   Nso     Nmo     Nalpha   Nbeta   Ndocc  Nsocc

    Irrep   Nso     Nmo     Nalpha   Nbeta   Ndocc  Nsocc

    Irrep   Nso     Nmo     Nalpha   Nbeta   Ndocc  Nsocc

    Irrep   Nso     Nmo     Nalpha   Nbeta   Ndocc  Nsocc

    Irrep   Nso     Nmo     Nalpha   Nbeta   Ndocc  Nsocc

    Irrep   Nso     Nmo     Nalpha   Nbeta   Ndocc  Nsocc

    Irrep   Nso     Nmo     Nalpha   Nbeta   Ndocc  Nsocc

    Irrep   Nso     Nmo     Nalpha   Nbeta   Ndocc  Nsocc

     Irrep 1: 4
     Irrep 2: 1
     Irrep 3: 2
     Irrep 4: 2

      Irrep 1: 20
      Irrep 2: 1
      Irrep 3: 4
      Irrep 4: 4

    Irrep   Nso     Nmo     Nalpha   Nbeta   Ndocc  Nsocc

    Irrep   Nso     Nmo     Nalpha   Nbeta   Ndocc  Nsocc

    Irrep   Nso     Nmo     Nalpha   Nbeta   Ndocc  Nsocc

    Irrep   Nso     Nmo     Nalpha   Nbeta   Ndocc  Nsocc

    Irrep   Nso     Nmo     Nalpha   Nbeta   Ndocc  Nsocc

    Irrep   Nso     Nmo     Nalpha   Nbeta   Ndocc  Nsocc

    Irrep   Nso     Nmo     Nalpha   Nbeta   Ndocc  Nsocc

    Irrep   Nso     Nmo     Nalpha   Nbeta   Ndocc  Nsocc

    Irrep   Nso     Nmo     Nalpha   Nbeta   Ndocc  Nsocc

    Irrep   Nso     Nmo     Nalpha   Nbeta   Ndocc  Nsocc

    Irrep   Nso     Nmo     Nalpha   Nbeta   Ndocc  Nsocc

  @DF-RKS Final Energy:   -40.49741123969786
    Total Energy =                        -40.4974112396978612

    Irrep   Nso     Nmo     Nalpha   Nbeta   Ndocc  Nsocc

  @DF-RKS Final Energy:   -40.49746835775835
    Total Energy =                        -40.4974683577583505

    Irrep   Nso     Nmo     Nalpha   Nbeta   Ndocc  Nsocc

  @DF-RKS Final Energy:   -40.49741180520234
    Total Energy =                        -40.4974118052023400

    Irrep   Nso     Nmo     Nalpha   Nbeta   Ndocc  Nsocc

  @DF-RKS Final Energy:   -40.49750485755054
    Total Energy =                        -40.4975048575505383

    Irrep   Nso     Nmo     Nalpha   Nbeta   Ndocc  Nsocc

  @DF-RKS Final Energy:   -40.49737877698578
    Total Energy =                        -40.4973787769857836

    Irrep   Nso     Nmo     Nalpha   Nbeta   Ndocc  Nsocc

  @DF-RKS Final Energy:   -40.49743793469561
    Total Energy =                        -40.4974379346956113

    Irrep   Nso     Nmo     Nalpha   Nbeta   Ndocc  Nsocc

  @DF-RKS Final Energy:   -40.49744161819666
    Total Energy =                        -40.4974416181966603

    Irrep   Nso     Nmo     Nalpha   Nbeta   Ndocc  Nsocc

  @DF-RKS Final Energy:   -40.49747351973631
    Total Energy =                        -40.4974735197363174

    Irrep   Nso     Nmo     Nalpha   Nbeta   Ndocc  Nsocc

  @DF-RKS Final Energy:   -40.49740766233552
    Total Energy =                        -40.4974076623355259

    Irrep   Nso     Nmo     Nalpha   Nbeta   Ndocc  Nsocc

  @DF-RKS Final Energy:   -40.49747246556304
    Total Energy =                        -40.4974724655630425

    Irrep   Nso     Nmo     Nalpha   Nbeta   Ndocc  Nsocc

  @DF-RKS Final Energy:   -40.49741582522719
    Total Energy =                        -40.4974158252271863

    Irrep   Nso     Nmo     Nalpha   Nbeta   Ndocc  Nsocc

  @DF-RKS Final Energy:   -40.49744620324245
    Total Energy =                        -40.4974462032424611

    Irrep   Nso     Nmo     Nalpha   Nbeta   Ndocc  Nsocc

  @DF-RKS Final Energy:   -40.49744543075300
    Total Energy =                        -40.4974454307529967

    Irrep   Nso     Nmo     Nalpha   Nbeta   Ndocc  Nsocc

  @DF-RKS Final Energy:   -40.49744158565017
    Total Energy =                        -40.4974415856501651

    Irrep   Nso     Nmo     Nalpha   Nbeta   Ndocc  Nsocc

  @DF-RKS Final Energy:   -40.49744062752833
    Total Energy =                        -40.4974406275283272

    Irrep   Nso     Nmo     Nalpha   Nbeta   Ndocc  Nsocc

  @DF-RKS Final Energy:   -40.49744062753746
    Total Energy =                        -40.4974406275374648
  Basis Set: CC-PV(D+D)Z
    Blend: CC-PV(D+D)Z

    Irrep   Nso     Nmo     Nalpha   Nbeta   Ndocc  Nsocc

  Basis Set: (CC-PV(D+D)Z AUX)
    Blend: CC-PVDZ-JKFIT
  @DF-RKS Final Energy:   -40.49744180134878
    Total Energy =                        -40.4974418013487849
  Basis Set: CC-PV(D+D)Z
    Blend: CC-PV(D+D)Z

    Irrep   Nso     Nmo     Nalpha   Nbeta   Ndocc  Nsocc

  Basis Set: (CC-PV(D+D)Z AUX)
    Blend: CC-PVDZ-JKFIT
  @DF-RKS Final Energy:   -40.49744521585330
    Total Energy =                        -40.4974452158533040
  Multiplicity = 1
  Basis Set: CC-PV(D+D)Z
    Blend: CC-PV(D+D)Z

    Irrep   Nso     Nmo     Nalpha   Nbeta   Ndocc  Nsocc

  Basis Set: (CC-PV(D+D)Z AUX)
    Blend: CC-PVDZ-JKFIT
  @DF-RKS Final Energy:   -40.49744254423811
    Total Energy =                        -40.4974425442381119
    Molecular point group: cs

    Geometry (in Angstrom), charge = 0, multiplicity = 1:

       Center              X                  Y                   Z               Mass
    ------------   -----------------  -----------------  -----------------  -----------------
         H            0.000000000000     0.887872852016    -0.654610003469     1.007825032230
         C            0.000000000000     0.000538387359     0.000001383779    12.000000000000
         H            0.889323549726    -0.001744548289     0.654392917537     1.007825032230
         H           -0.889323549726    -0.001744548289     0.654392917537     1.007825032230
         H            0.000000000000    -0.890794241484    -0.654192308021     1.007825032230

  Charge       = 0
  Multiplicity = 1
  Basis Set: CC-PV(D+D)Z
    Blend: CC-PV(D+D)Z

    Irrep   Nso     Nmo     Nalpha   Nbeta   Ndocc  Nsocc

  Basis Set: (CC-PV(D+D)Z AUX)
    Blend: CC-PVDZ-JKFIT

    Orbital Energies [Eh]
    ---------------------

    Doubly Occupied:

       1Ap   -10.270877     2Ap    -0.816358     3Ap    -0.499476
       1App   -0.488842     4Ap    -0.488810

  @DF-RKS Final Energy:   -40.49744254422573

   => Energetics <=

    Nuclear Repulsion Energy =             13.2634814240216912
    One-Electron Energy =                 -79.4627143772438558
    Two-Electron Energy =                  30.1854963265809886
    DFT Exchange-Correlation Energy =      -4.5250988459787020
    Empirical Dispersion Energy =           0.0000000000000000
    VV10 Nonlocal Energy =                  0.0413929283941470
    Total Energy =                        -40.4974425442257342

  Dipole Moment: [D]
     X:     0.0000      Y:    -0.0005      Z:     0.0000     Total:     0.0005

  Vibration                       7                   8                   9
  Freq [cm^-1]                 305.3812           1312.3809           1312.8308
  Irrep                           A2                  B2                  B1
  Reduced mass [u]              1.0078              1.1783              1.1780
  Force const [mDyne/A]         0.0554              1.1957              1.1962

  Vibration                       10                  11                  12
  Freq [cm^-1]                1333.5113           1548.3747           3020.4793
  Irrep                           A1                  A1                  A1
  Reduced mass [u]              1.1743              1.0078              1.0078
  Force const [mDyne/A]         1.2303              1.4236              5.4174

  Vibration                       13                  14                  15
  Freq [cm^-1]                3139.5774           3139.6583           3167.6902
  Irrep                           B2                  B1                  A1
  Reduced mass [u]              1.1023              1.1025              1.1058
  Force const [mDyne/A]         6.4014              6.4033              6.5374

  ==> Thermochemistry Components <==

  Entropy, S
    Electronic S            0.000 [cal/(mol K)]        0.000 [J/(mol K)]       0.00000000 [mEh/K] (multiplicity = 1)
    Translational S        34.261 [cal/(mol K)]      143.349 [J/(mol K)]       0.05459877 [mEh/K] (mol. weight = 16.0313 [u], P = 101325.00 [Pa])
    Rotational S           13.757 [cal/(mol K)]       57.558 [J/(mol K)]       0.02192256 [mEh/K] (symmetry no. = 2)
    Vibrational S           1.472 [cal/(mol K)]        6.161 [J/(mol K)]       0.00234643 [mEh/K]
  Total S                  49.490 [cal/(mol K)]      207.067 [J/(mol K)]       0.07886776 [mEh/K]
  Correction S              0.000 [cal/(mol K)]        0.000 [J/(mol K)]       0.00000000 [mEh/K]

  Constant volume heat capacity, Cv
    Electronic Cv           0.000 [cal/(mol K)]        0.000 [J/(mol K)]       0.00000000 [mEh/K]
    Translational Cv        2.981 [cal/(mol K)]       12.472 [J/(mol K)]       0.00475022 [mEh/K]
    Rotational Cv           2.981 [cal/(mol K)]       12.472 [J/(mol K)]       0.00475022 [mEh/K]
    Vibrational Cv          2.144 [cal/(mol K)]        8.969 [J/(mol K)]       0.00341610 [mEh/K]
  Total Cv                  8.105 [cal/(mol K)]       33.912 [J/(mol K)]       0.01291653 [mEh/K]
  Correction Cv             0.000 [cal/(mol K)]        0.000 [J/(mol K)]       0.00000000 [mEh/K]

  Constant pressure heat capacity, Cp
    Electronic Cp           0.000 [cal/(mol K)]        0.000 [J/(mol K)]       0.00000000 [mEh/K]
    Translational Cp        4.968 [cal/(mol K)]       20.786 [J/(mol K)]       0.00791703 [mEh/K]
    Rotational Cp           2.981 [cal/(mol K)]       12.472 [J/(mol K)]       0.00475022 [mEh/K]
    Vibrational Cp          2.144 [cal/(mol K)]        8.969 [J/(mol K)]       0.00341610 [mEh/K]
  Total Cp                 10.092 [cal/(mol K)]       42.227 [J/(mol K)]       0.01608334 [mEh/K]
  Correction Cp             0.000 [cal/(mol K)]        0.000 [J/(mol K)]       0.00000000 [mEh/K]

  ==> Thermochemistry Energy Analysis <==

  Raw electronic energy, E0
  Total E0, Electronic energy at well bottom at 0 [K]                  -40.49744625 [Eh]

  Zero-point energy, ZPE_vib = Sum_i nu_i / 2
    Electronic ZPE          0.000 [kcal/mol]        0.000 [kJ/mol]       0.00000000 [Eh]
    Translational ZPE       0.000 [kcal/mol]        0.000 [kJ/mol]       0.00000000 [Eh]
    Rotational ZPE          0.000 [kcal/mol]        0.000 [kJ/mol]       0.00000000 [Eh]
    Vibrational ZPE        26.132 [kcal/mol]      109.338 [kJ/mol]       0.04164464 [Eh]        9139.942 [cm^-1]
  Correction ZPE           26.132 [kcal/mol]      109.338 [kJ/mol]       0.04164464 [Eh]        9139.942 [cm^-1]
  Total ZPE, Electronic energy at 0 [K]                                -40.45580161 [Eh]

  Thermal Energy, E (includes ZPE)
    Electronic E            0.000 [kcal/mol]        0.000 [kJ/mol]       0.00000000 [Eh]
    Translational E         0.889 [kcal/mol]        3.718 [kJ/mol]       0.00141628 [Eh]
    Rotational E            0.889 [kcal/mol]        3.718 [kJ/mol]       0.00141628 [Eh]
    Vibrational E          26.414 [kcal/mol]      110.516 [kJ/mol]       0.04209317 [Eh]
  Correction E             28.191 [kcal/mol]      117.952 [kJ/mol]       0.04492572 [Eh]
  Total E, Electronic energy at  298.15 [K]                            -40.45252053 [Eh]

  Enthalpy, H_trans = E_trans + k_B * T
    Electronic H            0.000 [kcal/mol]        0.000 [kJ/mol]       0.00000000 [Eh]
    Translational H         1.481 [kcal/mol]        6.197 [kJ/mol]       0.00236046 [Eh]
    Rotational H            0.889 [kcal/mol]        3.718 [kJ/mol]       0.00141628 [Eh]
    Vibrational H          26.414 [kcal/mol]      110.516 [kJ/mol]       0.04209317 [Eh]
  Correction H             28.784 [kcal/mol]      120.431 [kJ/mol]       0.04586991 [Eh]
  Total H, Enthalpy at  298.15 [K]                                     -40.45157634 [Eh]

  Gibbs free energy, G = H - T * S
    Electronic G            0.000 [kcal/mol]        0.000 [kJ/mol]       0.00000000 [Eh]
    Translational G        -8.734 [kcal/mol]      -36.542 [kJ/mol]      -0.01391816 [Eh]
    Rotational G           -3.213 [kcal/mol]      -13.442 [kJ/mol]      -0.00511993 [Eh]
    Vibrational G          25.975 [kcal/mol]      108.679 [kJ/mol]       0.04139358 [Eh]
  Correction G             14.028 [kcal/mol]       58.694 [kJ/mol]       0.02235548 [Eh]
  Total G, Free enthalpy at  298.15 [K]                                -40.47509077 [Eh]

*** Psi4 exiting successfully. Buy a developer a beer!
