                               Psi4 1.3.2 release

  ==> Input File <==

--------------------------------------------------------------------------
memory 144 GB

molecule {
0 1
Cl 0.0000000000 0.0000000000 0.0000000000
Cl 0.0000000000 0.0000000000 1.9965761200
}

set dynamic_level 1
set basis cc-pV(D+d)Z

optimize("wB97X-V")
frequencies("wB97X-V")
--------------------------------------------------------------------------

    Molecular point group: d2h
  Charge       = 0
  Multiplicity = 1
  Basis Set: CC-PV(D+D)Z
    Blend: CC-PV(D+D)Z
  Basis Set: (CC-PV(D+D)Z AUX)
    Blend: CC-PVDZ-JKFIT
  @DF-RKS Final Energy:  -920.23031940908288
    Total Energy =                       -920.2303194090829948
    Molecular point group: d2h
  Basis Set: CC-PV(D+D)Z
    Blend: CC-PV(D+D)Z
  Basis Set: (CC-PV(D+D)Z AUX)
    Blend: CC-PVDZ-JKFIT
  @DF-RKS Final Energy:  -920.23031756565456
    Total Energy =                       -920.2303175656545591
  Basis Set: CC-PV(D+D)Z
    Blend: CC-PV(D+D)Z
  Basis Set: (CC-PV(D+D)Z AUX)
    Blend: CC-PVDZ-JKFIT
  @DF-RKS Final Energy:  -920.23032094009045
    Total Energy =                       -920.2303209400903370
  Basis Set: CC-PV(D+D)Z
    Blend: CC-PV(D+D)Z
  Basis Set: (CC-PV(D+D)Z AUX)
    Blend: CC-PVDZ-JKFIT
  @DF-RKS Final Energy:  -920.23032331689956
    Total Energy =                       -920.2303233168995575
  @DF-RKS Final Energy:  -920.23032253118276
    Total Energy =                       -920.2303225311827646
  @DF-RKS Final Energy:  -920.23032378691232
    Total Energy =                       -920.2303237869123222
  @DF-RKS Final Energy:  -920.23032394027894
    Total Energy =                       -920.2303239402789359
  @DF-RKS Final Energy:  -920.23032378656490
    Total Energy =                       -920.2303237865648953
  @DF-RKS Final Energy:  -920.23032377611014
    Total Energy =                       -920.2303237761100263
  **** Optimization is complete! (in 3 steps) ****
    Final optimized geometry and variables:
  @DF-RKS Final Energy:  -920.23032394027950
    Total Energy =                       -920.2303239402793906
  @DF-RKS Final Energy:  -920.23032378656433
    Total Energy =                       -920.2303237865643268
  Basis Set: CC-PV(D+D)Z
    Blend: CC-PV(D+D)Z
  Basis Set: (CC-PV(D+D)Z AUX)
    Blend: CC-PVDZ-JKFIT
  @DF-RKS Final Energy:  -920.23032377611037
    Total Energy =                       -920.2303237761103674
  Basis Set: CC-PV(D+D)Z
    Blend: CC-PV(D+D)Z
  Basis Set: (CC-PV(D+D)Z AUX)
    Blend: CC-PVDZ-JKFIT
  @DF-RKS Final Energy:  -920.23032394027905
    Total Energy =                       -920.2303239402789359
  Multiplicity = 1
  Basis Set: CC-PV(D+D)Z
    Blend: CC-PV(D+D)Z
  Basis Set: (CC-PV(D+D)Z AUX)
    Blend: CC-PVDZ-JKFIT
  @DF-RKS Final Energy:  -920.23032378656546
    Total Energy =                       -920.2303237865654637
    Molecular point group: d2h

    Geometry (in Angstrom), charge = 0, multiplicity = 1:

       Center              X                  Y                   Z               Mass
    ------------   -----------------  -----------------  -----------------  -----------------
         CL           0.000000000000     0.000000000000    -0.996272137682    34.968852682000
         CL           0.000000000000     0.000000000000     0.996272137682    34.968852682000

  Charge       = 0
  Multiplicity = 1
  Basis Set: CC-PV(D+D)Z
    Blend: CC-PV(D+D)Z
  Basis Set: (CC-PV(D+D)Z AUX)
    Blend: CC-PVDZ-JKFIT

    Orbital Energies [Eh]
    ---------------------

    Doubly Occupied:

       1B1u -101.583187     1Ag  -101.583187     2B1u   -9.610627
       2Ag    -9.610573     3Ag    -7.370060     3B1u   -7.369916
       1B3g   -7.354027     1B2g   -7.354027     1B2u   -7.354026
       1B3u   -7.354026     4Ag    -1.071409     4B1u   -0.892358
       5Ag    -0.572080     2B2u   -0.520019     2B3u   -0.520019
       2B3g   -0.408211     2B2g   -0.408211

  @DF-RKS Final Energy:  -920.23032377610980

   => Energetics <=

    Nuclear Repulsion Energy =             76.7522286829139659
    One-Electron Energy =               -1422.9536375421255343
    Two-Electron Energy =                 468.5622525455066807
    DFT Exchange-Correlation Energy =     -42.7336072455615437
    Empirical Dispersion Energy =           0.0000000000000000
    VV10 Nonlocal Energy =                  0.1424397831565740
    Total Energy =                       -920.2303237761099126

  Dipole Moment: [D]
     X:     0.0000      Y:     0.0000      Z:     0.0000     Total:     0.0000

  Vibration                       6
  Freq [cm^-1]                 579.6527
  Irrep                           Ag
  Reduced mass [u]             34.9689
  Force const [mDyne/A]         6.9226

  ==> Thermochemistry Components <==

  Entropy, S
    Electronic S            0.000 [cal/(mol K)]        0.000 [J/(mol K)]       0.00000000 [mEh/K] (multiplicity = 1)
    Translational S        38.652 [cal/(mol K)]      161.721 [J/(mol K)]       0.06159614 [mEh/K] (mol. weight = 69.9377 [u], P = 101325.00 [Pa])
    Rotational S           14.023 [cal/(mol K)]       58.672 [J/(mol K)]       0.02234699 [mEh/K] (symmetry no. = 2)
    Vibrational S           0.486 [cal/(mol K)]        2.033 [J/(mol K)]       0.00077450 [mEh/K]
  Total S                  53.161 [cal/(mol K)]      222.426 [J/(mol K)]       0.08471762 [mEh/K]
  Correction S              0.000 [cal/(mol K)]        0.000 [J/(mol K)]       0.00000000 [mEh/K]

  Constant volume heat capacity, Cv
    Electronic Cv           0.000 [cal/(mol K)]        0.000 [J/(mol K)]       0.00000000 [mEh/K]
    Translational Cv        2.981 [cal/(mol K)]       12.472 [J/(mol K)]       0.00475022 [mEh/K]
    Rotational Cv           1.987 [cal/(mol K)]        8.314 [J/(mol K)]       0.00316681 [mEh/K]
    Vibrational Cv          1.075 [cal/(mol K)]        4.499 [J/(mol K)]       0.00171359 [mEh/K]
  Total Cv                  6.043 [cal/(mol K)]       25.285 [J/(mol K)]       0.00963062 [mEh/K]
  Correction Cv             0.000 [cal/(mol K)]        0.000 [J/(mol K)]       0.00000000 [mEh/K]

  Constant pressure heat capacity, Cp
    Electronic Cp           0.000 [cal/(mol K)]        0.000 [J/(mol K)]       0.00000000 [mEh/K]
    Translational Cp        4.968 [cal/(mol K)]       20.786 [J/(mol K)]       0.00791703 [mEh/K]
    Rotational Cp           1.987 [cal/(mol K)]        8.314 [J/(mol K)]       0.00316681 [mEh/K]
    Vibrational Cp          1.075 [cal/(mol K)]        4.499 [J/(mol K)]       0.00171359 [mEh/K]
  Total Cp                  8.031 [cal/(mol K)]       33.600 [J/(mol K)]       0.01279743 [mEh/K]
  Correction Cp             0.000 [cal/(mol K)]        0.000 [J/(mol K)]       0.00000000 [mEh/K]

  ==> Thermochemistry Energy Analysis <==

  Raw electronic energy, E0
  Total E0, Electronic energy at well bottom at 0 [K]                 -920.23032394 [Eh]

  Zero-point energy, ZPE_vib = Sum_i nu_i / 2
    Electronic ZPE          0.000 [kcal/mol]        0.000 [kJ/mol]       0.00000000 [Eh]
    Translational ZPE       0.000 [kcal/mol]        0.000 [kJ/mol]       0.00000000 [Eh]
    Rotational ZPE          0.000 [kcal/mol]        0.000 [kJ/mol]       0.00000000 [Eh]
    Vibrational ZPE         0.829 [kcal/mol]        3.467 [kJ/mol]       0.00132055 [Eh]         289.826 [cm^-1]
  Correction ZPE            0.829 [kcal/mol]        3.467 [kJ/mol]       0.00132055 [Eh]         289.826 [cm^-1]
  Total ZPE, Electronic energy at 0 [K]                               -920.22900339 [Eh]

  Thermal Energy, E (includes ZPE)
    Electronic E            0.000 [kcal/mol]        0.000 [kJ/mol]       0.00000000 [Eh]
    Translational E         0.889 [kcal/mol]        3.718 [kJ/mol]       0.00141628 [Eh]
    Rotational E            0.592 [kcal/mol]        2.479 [kJ/mol]       0.00094418 [Eh]
    Vibrational E           0.936 [kcal/mol]        3.917 [kJ/mol]       0.00149206 [Eh]
  Correction E              2.417 [kcal/mol]       10.115 [kJ/mol]       0.00385252 [Eh]
  Total E, Electronic energy at  298.15 [K]                           -920.22647142 [Eh]

  Enthalpy, H_trans = E_trans + k_B * T
    Electronic H            0.000 [kcal/mol]        0.000 [kJ/mol]       0.00000000 [Eh]
    Translational H         1.481 [kcal/mol]        6.197 [kJ/mol]       0.00236046 [Eh]
    Rotational H            0.592 [kcal/mol]        2.479 [kJ/mol]       0.00094418 [Eh]
    Vibrational H           0.936 [kcal/mol]        3.917 [kJ/mol]       0.00149206 [Eh]
  Correction H              3.010 [kcal/mol]       12.594 [kJ/mol]       0.00479670 [Eh]
  Total H, Enthalpy at  298.15 [K]                                    -920.22552724 [Eh]

  Gibbs free energy, G = H - T * S
    Electronic G            0.000 [kcal/mol]        0.000 [kJ/mol]       0.00000000 [Eh]
    Translational G       -10.043 [kcal/mol]      -42.020 [kJ/mol]      -0.01600443 [Eh]
    Rotational G           -3.588 [kcal/mol]      -15.014 [kJ/mol]      -0.00571857 [Eh]
    Vibrational G           0.791 [kcal/mol]        3.311 [kJ/mol]       0.00126114 [Eh]
  Correction G            -12.840 [kcal/mol]      -53.723 [kJ/mol]      -0.02046186 [Eh]
  Total G, Free enthalpy at  298.15 [K]                               -920.25078580 [Eh]

*** Psi4 exiting successfully. Buy a developer a beer!
