                               Psi4 1.3.2 release

  ==> Input File <==

--------------------------------------------------------------------------
memory 144 GB

molecule {
0 1
Cl 0.0000000000 0.0000000000 0.0000000000
C 0.0000000000 0.0000000000 1.6357056100
N 0.0000000000 0.0000000000 2.7976884200
}

set dynamic_level 1
set basis cc-pV(D+d)Z

optimize("wB97X-V")
frequencies("wB97X-V")
--------------------------------------------------------------------------

    Molecular point group: c2v
  Charge       = 0
  Multiplicity = 1
  Basis Set: CC-PV(D+D)Z
    Blend: CC-PV(D+D)Z
  Basis Set: (CC-PV(D+D)Z AUX)
    Blend: CC-PVDZ-JKFIT
  @DF-RKS Final Energy:  -552.92920687117214
    Total Energy =                       -552.9292068711721413
    Molecular point group: c2v
  Basis Set: CC-PV(D+D)Z
    Blend: CC-PV(D+D)Z
  Basis Set: (CC-PV(D+D)Z AUX)
    Blend: CC-PVDZ-JKFIT
  @DF-RKS Final Energy:  -552.92920681500470
    Total Energy =                       -552.9292068150045907
  Basis Set: CC-PV(D+D)Z
    Blend: CC-PV(D+D)Z
  Basis Set: (CC-PV(D+D)Z AUX)
    Blend: CC-PVDZ-JKFIT
  @DF-RKS Final Energy:  -552.92920631522338
    Total Energy =                       -552.9292063152233823
  Basis Set: CC-PV(D+D)Z
    Blend: CC-PV(D+D)Z
  Basis Set: (CC-PV(D+D)Z AUX)
    Blend: CC-PVDZ-JKFIT
  @DF-RKS Final Energy:  -552.92919876772669
    Total Energy =                       -552.9291987677266889
  @DF-RKS Final Energy:  -552.92920969255874
    Total Energy =                       -552.9292096925587430
  @DF-RKS Final Energy:  -552.92920973434161
    Total Energy =                       -552.9292097343416117
  @DF-RKS Final Energy:  -552.92920951595181
    Total Energy =                       -552.9292095159518112
  @DF-RKS Final Energy:  -552.92920934070912
    Total Energy =                       -552.9292093407091215
  @DF-RKS Final Energy:  -552.92920705392032
    Total Energy =                       -552.9292070539203223
  @DF-RKS Final Energy:  -552.92920709707107
    Total Energy =                       -552.9292070970710711
  **** Optimization is complete! (in 2 steps) ****
    Final optimized geometry and variables:
  @DF-RKS Final Energy:  -552.92920973424089
    Total Energy =                       -552.9292097342407715
  @DF-RKS Final Energy:  -552.92920951604106
    Total Energy =                       -552.9292095160410554
  @DF-RKS Final Energy:  -552.92920934083895
    Total Energy =                       -552.9292093408389519
  @DF-RKS Final Energy:  -552.92920705409438
    Total Energy =                       -552.9292070540943769
  @DF-RKS Final Energy:  -552.92920709700252
    Total Energy =                       -552.9292070970026316
  @DF-RKS Final Energy:  -552.92920973424111
    Total Energy =                       -552.9292097342412262
  @DF-RKS Final Energy:  -552.92920951604060
    Total Energy =                       -552.9292095160406006
  @DF-RKS Final Energy:  -552.92920934083918
    Total Energy =                       -552.9292093408391793
  @DF-RKS Final Energy:  -552.92920705409426
    Total Energy =                       -552.9292070540943769
  @DF-RKS Final Energy:  -552.92920709700263
    Total Energy =                       -552.9292070970026316
  Basis Set: CC-PV(D+D)Z
    Blend: CC-PV(D+D)Z
  Basis Set: (CC-PV(D+D)Z AUX)
    Blend: CC-PVDZ-JKFIT
  @DF-RKS Final Energy:  -552.92920716644005
    Total Energy =                       -552.9292071664401647
  Basis Set: CC-PV(D+D)Z
    Blend: CC-PV(D+D)Z
  Basis Set: (CC-PV(D+D)Z AUX)
    Blend: CC-PVDZ-JKFIT
  @DF-RKS Final Energy:  -552.92920729789535
    Total Energy =                       -552.9292072978953456
  Multiplicity = 1
  Basis Set: CC-PV(D+D)Z
    Blend: CC-PV(D+D)Z
  Basis Set: (CC-PV(D+D)Z AUX)
    Blend: CC-PVDZ-JKFIT
  @DF-RKS Final Energy:  -552.92920965589838
    Total Energy =                       -552.9292096558983758
    Molecular point group: cs

    Geometry (in Angstrom), charge = 0, multiplicity = 1:

       Center              X                  Y                   Z               Mass
    ------------   -----------------  -----------------  -----------------  -----------------
         CL           0.000000000000    -0.000093553641    -0.964295635180    34.968852682000
         C            0.000000000000     0.000656810861     0.671637491377    12.000000000000
         N            0.000000000000    -0.000329232485     1.832502070894    14.003074004430

  Charge       = 0
  Multiplicity = 1
  Basis Set: CC-PV(D+D)Z
    Blend: CC-PV(D+D)Z
  Basis Set: (CC-PV(D+D)Z AUX)
    Blend: CC-PVDZ-JKFIT

    Orbital Energies [Eh]
    ---------------------

    Doubly Occupied:

       1Ap  -101.616172     2Ap   -14.455081     3Ap   -10.386628
       4Ap    -9.644220     5Ap    -7.401033     1App   -7.388873
       6Ap    -7.388873     7Ap    -1.097630     8Ap    -1.034059
       9Ap    -0.689446     2App   -0.552796    10Ap    -0.552796
      11Ap    -0.501206     3App   -0.435354    12Ap    -0.435354

  @DF-RKS Final Energy:  -552.92920965596431

   => Energetics <=

    Nuclear Repulsion Energy =             74.6554264073157015
    One-Electron Energy =                -907.6570522908589282
    Two-Electron Energy =                 309.9329177299056823
    DFT Exchange-Correlation Energy =     -29.9849815214543369
    Empirical Dispersion Energy =           0.0000000000000000
    VV10 Nonlocal Energy =                  0.1244800191276278
    Total Energy =                       -552.9292096559642005

  Dipole Moment: [D]
     X:     0.0000      Y:     0.0007      Z:    -2.6864     Total:     2.6864

  Vibration                       6                   7                   8
  Freq [cm^-1]                 406.7858            406.9571            773.8730
  Irrep                           B2                  B1                  A1
  Reduced mass [u]             12.7623             12.7623             17.9720
  Force const [mDyne/A]         1.2443              1.2453              6.3414

  Vibration                       9
  Freq [cm^-1]                2380.7494
  Irrep                           A1
  Reduced mass [u]             12.7392
  Force const [mDyne/A]        42.5421

  ==> Thermochemistry Components <==

  Entropy, S
    Electronic S            0.000 [cal/(mol K)]        0.000 [J/(mol K)]       0.00000000 [mEh/K] (multiplicity = 1)
    Translational S        38.243 [cal/(mol K)]      160.010 [J/(mol K)]       0.06094445 [mEh/K] (mol. weight = 60.9719 [u], P = 101325.00 [Pa])
    Rotational S           15.800 [cal/(mol K)]       66.109 [J/(mol K)]       0.02517961 [mEh/K] (symmetry no. = 1)
    Vibrational S           2.105 [cal/(mol K)]        8.809 [J/(mol K)]       0.00335511 [mEh/K]
  Total S                  56.149 [cal/(mol K)]      234.928 [J/(mol K)]       0.08947917 [mEh/K]
  Correction S              0.000 [cal/(mol K)]        0.000 [J/(mol K)]       0.00000000 [mEh/K]

  Constant volume heat capacity, Cv
    Electronic Cv           0.000 [cal/(mol K)]        0.000 [J/(mol K)]       0.00000000 [mEh/K]
    Translational Cv        2.981 [cal/(mol K)]       12.472 [J/(mol K)]       0.00475022 [mEh/K]
    Rotational Cv           1.987 [cal/(mol K)]        8.314 [J/(mol K)]       0.00316681 [mEh/K]
    Vibrational Cv          3.608 [cal/(mol K)]       15.096 [J/(mol K)]       0.00574977 [mEh/K]
  Total Cv                  8.576 [cal/(mol K)]       35.882 [J/(mol K)]       0.01366679 [mEh/K]
  Correction Cv             0.000 [cal/(mol K)]        0.000 [J/(mol K)]       0.00000000 [mEh/K]

  Constant pressure heat capacity, Cp
    Electronic Cp           0.000 [cal/(mol K)]        0.000 [J/(mol K)]       0.00000000 [mEh/K]
    Translational Cp        4.968 [cal/(mol K)]       20.786 [J/(mol K)]       0.00791703 [mEh/K]
    Rotational Cp           1.987 [cal/(mol K)]        8.314 [J/(mol K)]       0.00316681 [mEh/K]
    Vibrational Cp          3.608 [cal/(mol K)]       15.096 [J/(mol K)]       0.00574977 [mEh/K]
  Total Cp                 10.563 [cal/(mol K)]       44.197 [J/(mol K)]       0.01683360 [mEh/K]
  Correction Cp             0.000 [cal/(mol K)]        0.000 [J/(mol K)]       0.00000000 [mEh/K]

  ==> Thermochemistry Energy Analysis <==

  Raw electronic energy, E0
  Total E0, Electronic energy at well bottom at 0 [K]                 -552.92920973 [Eh]

  Zero-point energy, ZPE_vib = Sum_i nu_i / 2
    Electronic ZPE          0.000 [kcal/mol]        0.000 [kJ/mol]       0.00000000 [Eh]
    Translational ZPE       0.000 [kcal/mol]        0.000 [kJ/mol]       0.00000000 [Eh]
    Rotational ZPE          0.000 [kcal/mol]        0.000 [kJ/mol]       0.00000000 [Eh]
    Vibrational ZPE         5.673 [kcal/mol]       23.736 [kJ/mol]       0.00904060 [Eh]        1984.183 [cm^-1]
  Correction ZPE            5.673 [kcal/mol]       23.736 [kJ/mol]       0.00904060 [Eh]        1984.183 [cm^-1]
  Total ZPE, Electronic energy at 0 [K]                               -552.92016913 [Eh]

  Thermal Energy, E (includes ZPE)
    Electronic E            0.000 [kcal/mol]        0.000 [kJ/mol]       0.00000000 [Eh]
    Translational E         0.889 [kcal/mol]        3.718 [kJ/mol]       0.00141628 [Eh]
    Rotational E            0.592 [kcal/mol]        2.479 [kJ/mol]       0.00094418 [Eh]
    Vibrational E           6.107 [kcal/mol]       25.553 [kJ/mol]       0.00973246 [Eh]
  Correction E              7.588 [kcal/mol]       31.750 [kJ/mol]       0.01209292 [Eh]
  Total E, Electronic energy at  298.15 [K]                           -552.91711682 [Eh]

  Enthalpy, H_trans = E_trans + k_B * T
    Electronic H            0.000 [kcal/mol]        0.000 [kJ/mol]       0.00000000 [Eh]
    Translational H         1.481 [kcal/mol]        6.197 [kJ/mol]       0.00236046 [Eh]
    Rotational H            0.592 [kcal/mol]        2.479 [kJ/mol]       0.00094418 [Eh]
    Vibrational H           6.107 [kcal/mol]       25.553 [kJ/mol]       0.00973246 [Eh]
  Correction H              8.181 [kcal/mol]       34.229 [kJ/mol]       0.01303710 [Eh]
  Total H, Enthalpy at  298.15 [K]                                    -552.91617263 [Eh]

  Gibbs free energy, G = H - T * S
    Electronic G            0.000 [kcal/mol]        0.000 [kJ/mol]       0.00000000 [Eh]
    Translational G        -9.921 [kcal/mol]      -41.509 [kJ/mol]      -0.01581013 [Eh]
    Rotational G           -4.118 [kcal/mol]      -17.231 [kJ/mol]      -0.00656312 [Eh]
    Vibrational G           5.479 [kcal/mol]       22.926 [kJ/mol]       0.00873213 [Eh]
  Correction G             -8.560 [kcal/mol]      -35.815 [kJ/mol]      -0.01364111 [Eh]
  Total G, Free enthalpy at  298.15 [K]                               -552.94285085 [Eh]

*** Psi4 exiting successfully. Buy a developer a beer!
