                               Psi4 1.3.2 release

  ==> Input File <==

--------------------------------------------------------------------------
memory 144 GB

molecule {
0 1
Cl 0.0000000000 0.0000000000 0.0000000000
F 0.0000000000 0.0000000000 1.6318233300
}

set dynamic_level 1
set basis cc-pV(D+d)Z

optimize("wB97X-V")
frequencies("wB97X-V")
--------------------------------------------------------------------------

    Molecular point group: c2v
  Charge       = 0
  Multiplicity = 1
  Basis Set: CC-PV(D+D)Z
    Blend: CC-PV(D+D)Z
  Basis Set: (CC-PV(D+D)Z AUX)
    Blend: CC-PVDZ-JKFIT
  @DF-RKS Final Energy:  -559.85490335133034
    Total Energy =                       -559.8549033513304494
    Molecular point group: c2v
  Basis Set: CC-PV(D+D)Z
    Blend: CC-PV(D+D)Z
  Basis Set: (CC-PV(D+D)Z AUX)
    Blend: CC-PVDZ-JKFIT
  @DF-RKS Final Energy:  -559.85491611117220
    Total Energy =                       -559.8549161111722015
  Basis Set: CC-PV(D+D)Z
    Blend: CC-PV(D+D)Z
  Basis Set: (CC-PV(D+D)Z AUX)
    Blend: CC-PVDZ-JKFIT
  @DF-RKS Final Energy:  -559.85488991481657
    Total Energy =                       -559.8548899148164537
  Basis Set: CC-PV(D+D)Z
    Blend: CC-PV(D+D)Z
  Basis Set: (CC-PV(D+D)Z AUX)
    Blend: CC-PVDZ-JKFIT
  @DF-RKS Final Energy:  -559.85502217945543
    Total Energy =                       -559.8550221794554318
  @DF-RKS Final Energy:  -559.85502562732177
    Total Energy =                       -559.8550256273217656
  @DF-RKS Final Energy:  -559.85501809033167
    Total Energy =                       -559.8550180903316686
  @DF-RKS Final Energy:  -559.85503331955613
    Total Energy =                       -559.8550333195562416
  @DF-RKS Final Energy:  -559.85503314665721
    Total Energy =                       -559.8550331466573198
  @DF-RKS Final Energy:  -559.85503286510232
    Total Energy =                       -559.8550328651024302
  **** Optimization is complete! (in 3 steps) ****
    Final optimized geometry and variables:
  @DF-RKS Final Energy:  -559.85503331955601
    Total Energy =                       -559.8550333195561279
  @DF-RKS Final Energy:  -559.85503314668711
    Total Energy =                       -559.8550331466871057
  Basis Set: CC-PV(D+D)Z
    Blend: CC-PV(D+D)Z
  Basis Set: (CC-PV(D+D)Z AUX)
    Blend: CC-PVDZ-JKFIT
  @DF-RKS Final Energy:  -559.85503286510482
    Total Energy =                       -559.8550328651049313
  Basis Set: CC-PV(D+D)Z
    Blend: CC-PV(D+D)Z
  Basis Set: (CC-PV(D+D)Z AUX)
    Blend: CC-PVDZ-JKFIT
  @DF-RKS Final Energy:  -559.85503331955624
    Total Energy =                       -559.8550333195562416
  Multiplicity = 1
  Basis Set: CC-PV(D+D)Z
    Blend: CC-PV(D+D)Z
  Basis Set: (CC-PV(D+D)Z AUX)
    Blend: CC-PVDZ-JKFIT
  @DF-RKS Final Energy:  -559.85503314668688
    Total Energy =                       -559.8550331466869920
    Molecular point group: c2v

    Geometry (in Angstrom), charge = 0, multiplicity = 1:

       Center              X                  Y                   Z               Mass
    ------------   -----------------  -----------------  -----------------  -----------------
         CL           0.000000000000     0.000000000000    -0.579472610920    34.968852682000
         F            0.000000000000     0.000000000000     1.066589238630    18.998403162730

  Charge       = 0
  Multiplicity = 1
  Basis Set: CC-PV(D+D)Z
    Blend: CC-PV(D+D)Z
  Basis Set: (CC-PV(D+D)Z AUX)
    Blend: CC-PVDZ-JKFIT

    Orbital Energies [Eh]
    ---------------------

    Doubly Occupied:

       1A1  -101.609631     2A1   -24.819999     3A1    -9.633983
       4A1    -7.396162     1B1    -7.376309     1B2    -7.376309
       5A1    -1.359849     6A1    -0.958736     7A1    -0.629350
       2B2    -0.587468     2B1    -0.587468     3B1    -0.433270
       3B2    -0.433270

  @DF-RKS Final Energy:  -559.85503286510436

   => Energetics <=

    Nuclear Repulsion Energy =             49.1865559332745335
    One-Electron Energy =                -872.0207291289143541
    Two-Electron Energy =                 291.7771028383670568
    DFT Exchange-Correlation Energy =     -28.9079758003300320
    Empirical Dispersion Energy =           0.0000000000000000
    VV10 Nonlocal Energy =                  0.1100132924982844
    Total Energy =                       -559.8550328651045902

  Dipole Moment: [D]
     X:     0.0000      Y:     0.0000      Z:    -1.1050     Total:     1.1050

  Vibration                       6
  Freq [cm^-1]                 814.2903
  Irrep                           A1
  Reduced mass [u]             22.6381
  Force const [mDyne/A]         8.8440

  ==> Thermochemistry Components <==

  Entropy, S
    Electronic S            0.000 [cal/(mol K)]        0.000 [J/(mol K)]       0.00000000 [mEh/K] (multiplicity = 1)
    Translational S        37.879 [cal/(mol K)]      158.488 [J/(mol K)]       0.06036475 [mEh/K] (mol. weight = 53.9673 [u], P = 101325.00 [Pa])
    Rotational S           13.944 [cal/(mol K)]       58.344 [J/(mol K)]       0.02222190 [mEh/K] (symmetry no. = 1)
    Vibrational S           0.196 [cal/(mol K)]        0.820 [J/(mol K)]       0.00031233 [mEh/K]
  Total S                  52.020 [cal/(mol K)]      217.651 [J/(mol K)]       0.08289897 [mEh/K]
  Correction S              0.000 [cal/(mol K)]        0.000 [J/(mol K)]       0.00000000 [mEh/K]

  Constant volume heat capacity, Cv
    Electronic Cv           0.000 [cal/(mol K)]        0.000 [J/(mol K)]       0.00000000 [mEh/K]
    Translational Cv        2.981 [cal/(mol K)]       12.472 [J/(mol K)]       0.00475022 [mEh/K]
    Rotational Cv           1.987 [cal/(mol K)]        8.314 [J/(mol K)]       0.00316681 [mEh/K]
    Vibrational Cv          0.627 [cal/(mol K)]        2.625 [J/(mol K)]       0.00099994 [mEh/K]
  Total Cv                  5.595 [cal/(mol K)]       23.412 [J/(mol K)]       0.00891697 [mEh/K]
  Correction Cv             0.000 [cal/(mol K)]        0.000 [J/(mol K)]       0.00000000 [mEh/K]

  Constant pressure heat capacity, Cp
    Electronic Cp           0.000 [cal/(mol K)]        0.000 [J/(mol K)]       0.00000000 [mEh/K]
    Translational Cp        4.968 [cal/(mol K)]       20.786 [J/(mol K)]       0.00791703 [mEh/K]
    Rotational Cp           1.987 [cal/(mol K)]        8.314 [J/(mol K)]       0.00316681 [mEh/K]
    Vibrational Cp          0.627 [cal/(mol K)]        2.625 [J/(mol K)]       0.00099994 [mEh/K]
  Total Cp                  7.583 [cal/(mol K)]       31.726 [J/(mol K)]       0.01208378 [mEh/K]
  Correction Cp             0.000 [cal/(mol K)]        0.000 [J/(mol K)]       0.00000000 [mEh/K]

  ==> Thermochemistry Energy Analysis <==

  Raw electronic energy, E0
  Total E0, Electronic energy at well bottom at 0 [K]                 -559.85503332 [Eh]

  Zero-point energy, ZPE_vib = Sum_i nu_i / 2
    Electronic ZPE          0.000 [kcal/mol]        0.000 [kJ/mol]       0.00000000 [Eh]
    Translational ZPE       0.000 [kcal/mol]        0.000 [kJ/mol]       0.00000000 [Eh]
    Rotational ZPE          0.000 [kcal/mol]        0.000 [kJ/mol]       0.00000000 [Eh]
    Vibrational ZPE         1.164 [kcal/mol]        4.871 [kJ/mol]       0.00185509 [Eh]         407.145 [cm^-1]
  Correction ZPE            1.164 [kcal/mol]        4.871 [kJ/mol]       0.00185509 [Eh]         407.145 [cm^-1]
  Total ZPE, Electronic energy at 0 [K]                               -559.85317823 [Eh]

  Thermal Energy, E (includes ZPE)
    Electronic E            0.000 [kcal/mol]        0.000 [kJ/mol]       0.00000000 [Eh]
    Translational E         0.889 [kcal/mol]        3.718 [kJ/mol]       0.00141628 [Eh]
    Rotational E            0.592 [kcal/mol]        2.479 [kJ/mol]       0.00094418 [Eh]
    Vibrational E           1.211 [kcal/mol]        5.066 [kJ/mol]       0.00192947 [Eh]
  Correction E              2.692 [kcal/mol]       11.263 [kJ/mol]       0.00428993 [Eh]
  Total E, Electronic energy at  298.15 [K]                           -559.85074339 [Eh]

  Enthalpy, H_trans = E_trans + k_B * T
    Electronic H            0.000 [kcal/mol]        0.000 [kJ/mol]       0.00000000 [Eh]
    Translational H         1.481 [kcal/mol]        6.197 [kJ/mol]       0.00236046 [Eh]
    Rotational H            0.592 [kcal/mol]        2.479 [kJ/mol]       0.00094418 [Eh]
    Vibrational H           1.211 [kcal/mol]        5.066 [kJ/mol]       0.00192947 [Eh]
  Correction H              3.284 [kcal/mol]       13.742 [kJ/mol]       0.00523412 [Eh]
  Total H, Enthalpy at  298.15 [K]                                    -559.84979920 [Eh]

  Gibbs free energy, G = H - T * S
    Electronic G            0.000 [kcal/mol]        0.000 [kJ/mol]       0.00000000 [Eh]
    Translational G        -9.813 [kcal/mol]      -41.056 [kJ/mol]      -0.01563729 [Eh]
    Rotational G           -3.565 [kcal/mol]      -14.916 [kJ/mol]      -0.00568127 [Eh]
    Vibrational G           1.152 [kcal/mol]        4.821 [kJ/mol]       0.00183635 [Eh]
  Correction G            -12.225 [kcal/mol]      -51.151 [kJ/mol]      -0.01948221 [Eh]
  Total G, Free enthalpy at  298.15 [K]                               -559.87451553 [Eh]

*** Psi4 exiting successfully. Buy a developer a beer!
