                               Psi4 1.3.2 release

  ==> Input File <==

--------------------------------------------------------------------------
memory 144 GB

molecule {
0 1
C 0.0000000000 0.0000000000 0.0000000000
O 0.0000000000 0.0000000000 1.1626000000
O 0.0000000000 0.0000000000 -1.1626000000
}

set dynamic_level 1
set basis cc-pV(D+d)Z

optimize("wB97X-V")
frequencies("wB97X-V")
--------------------------------------------------------------------------

    Molecular point group: d2h
  Charge       = 0
  Multiplicity = 1
  Basis Set: CC-PV(D+D)Z
    Blend: CC-PV(D+D)Z
  Basis Set: (CC-PV(D+D)Z AUX)
    Blend: CC-PVDZ-JKFIT
  @DF-RKS Final Energy:  -188.53758436261037
    Total Energy =                       -188.5375843626104029
    Molecular point group: d2h
  Basis Set: CC-PV(D+D)Z
    Blend: CC-PV(D+D)Z
  Basis Set: (CC-PV(D+D)Z AUX)
    Blend: CC-PVDZ-JKFIT
  @DF-RKS Final Energy:  -188.53757217661581
    Total Energy =                       -188.5375721766158108
  Basis Set: CC-PV(D+D)Z
    Blend: CC-PV(D+D)Z
  Basis Set: (CC-PV(D+D)Z AUX)
    Blend: CC-PVDZ-JKFIT
  @DF-RKS Final Energy:  -188.53759468260299
    Total Energy =                       -188.5375946826029576
  Basis Set: CC-PV(D+D)Z
    Blend: CC-PV(D+D)Z
  Basis Set: (CC-PV(D+D)Z AUX)
    Blend: CC-PVDZ-JKFIT
  @DF-RKS Final Energy:  -188.53761837633203
    Total Energy =                       -188.5376183763320057
  @DF-RKS Final Energy:  -188.53761676314096
    Total Energy =                       -188.5376167631409317
  @DF-RKS Final Energy:  -188.53761815727927
    Total Energy =                       -188.5376181572792689
  @DF-RKS Final Energy:  -188.53761850865297
    Total Energy =                       -188.5376185086529688
  @DF-RKS Final Energy:  -188.53761758688404
    Total Energy =                       -188.5376175868840392
  @DF-RKS Final Energy:  -188.53761760030358
    Total Energy =                       -188.5376176003035482
  **** Optimization is complete! (in 3 steps) ****
    Final optimized geometry and variables:
  @DF-RKS Final Energy:  -188.53761850865280
    Total Energy =                       -188.5376185086528267
  @DF-RKS Final Energy:  -188.53761758683905
    Total Energy =                       -188.5376175868390476
  @DF-RKS Final Energy:  -188.53761760030358
    Total Energy =                       -188.5376176003035766
  @DF-RKS Final Energy:  -188.53761850865300
    Total Energy =                       -188.5376185086529972
  @DF-RKS Final Energy:  -188.53761758683896
    Total Energy =                       -188.5376175868389623
  Basis Set: CC-PV(D+D)Z
    Blend: CC-PV(D+D)Z
  Basis Set: (CC-PV(D+D)Z AUX)
    Blend: CC-PVDZ-JKFIT
  @DF-RKS Final Energy:  -188.53761760030369
    Total Energy =                       -188.5376176003036903
  Basis Set: CC-PV(D+D)Z
    Blend: CC-PV(D+D)Z
  Basis Set: (CC-PV(D+D)Z AUX)
    Blend: CC-PVDZ-JKFIT
  @DF-RKS Final Energy:  -188.53761565978999
    Total Energy =                       -188.5376156597899922
  Multiplicity = 1
  Basis Set: CC-PV(D+D)Z
    Blend: CC-PV(D+D)Z
  Basis Set: (CC-PV(D+D)Z AUX)
    Blend: CC-PVDZ-JKFIT
  @DF-RKS Final Energy:  -188.53761829658259
    Total Energy =                       -188.5376182965825933
    Molecular point group: c2v

    Geometry (in Angstrom), charge = 0, multiplicity = 1:

       Center              X                  Y                   Z               Mass
    ------------   -----------------  -----------------  -----------------  -----------------
         C           -0.000651343880     0.000000000000     0.000000000000    12.000000000000
         O            0.000244331612     0.000000000000     1.165446983435    15.994914619570
         O            0.000244331612     0.000000000000    -1.165446983435    15.994914619570

  Charge       = 0
  Multiplicity = 1
  Basis Set: CC-PV(D+D)Z
    Blend: CC-PV(D+D)Z
  Basis Set: (CC-PV(D+D)Z AUX)
    Blend: CC-PVDZ-JKFIT

    Orbital Energies [Eh]
    ---------------------

    Doubly Occupied:

       1B2   -19.305954     1A1   -19.305932     2A1   -10.476047
       3A1    -1.290003     2B2    -1.244730     4A1    -0.675550
       5A1    -0.627672     1B1    -0.627672     3B2    -0.626181
       1A2    -0.468301     4B2    -0.468301

  @DF-RKS Final Energy:  -188.53761829659430

   => Energetics <=

    Nuclear Repulsion Energy =             58.1190469632364142
    One-Electron Energy =                -372.2833990962928397
    Two-Electron Energy =                 141.5925061786154515
    DFT Exchange-Correlation Energy =     -16.0576157520124738
    Empirical Dispersion Energy =           0.0000000000000000
    VV10 Nonlocal Energy =                  0.0918434098591261
    Total Energy =                       -188.5376182965943030

  Dipole Moment: [D]
     X:    -0.0024      Y:     0.0000      Z:     0.0000     Total:     0.0024

  Vibration                       6                   7                   8
  Freq [cm^-1]                 669.5412            669.5597           1390.8465
  Irrep                          B3u                 B2u                  Ag
  Reduced mass [u]             12.8774             12.8774             15.9949
  Force const [mDyne/A]         3.4012              3.4014             18.2302

  Vibration                       9
  Freq [cm^-1]                2454.0593
  Irrep                          B1u
  Reduced mass [u]             12.8774
  Force const [mDyne/A]        45.6928

  ==> Thermochemistry Components <==

  Entropy, S
    Electronic S            0.000 [cal/(mol K)]        0.000 [J/(mol K)]       0.00000000 [mEh/K] (multiplicity = 1)
    Translational S        37.270 [cal/(mol K)]      155.938 [J/(mol K)]       0.05939371 [mEh/K] (mol. weight = 43.9898 [u], P = 101325.00 [Pa])
    Rotational S           13.091 [cal/(mol K)]       54.771 [J/(mol K)]       0.02086130 [mEh/K] (symmetry no. = 2)
    Vibrational S           0.707 [cal/(mol K)]        2.960 [J/(mol K)]       0.00112734 [mEh/K]
  Total S                  51.068 [cal/(mol K)]      213.669 [J/(mol K)]       0.08138235 [mEh/K]
  Correction S              0.000 [cal/(mol K)]        0.000 [J/(mol K)]       0.00000000 [mEh/K]

  Constant volume heat capacity, Cv
    Electronic Cv           0.000 [cal/(mol K)]        0.000 [J/(mol K)]       0.00000000 [mEh/K]
    Translational Cv        2.981 [cal/(mol K)]       12.472 [J/(mol K)]       0.00475022 [mEh/K]
    Rotational Cv           1.987 [cal/(mol K)]        8.314 [J/(mol K)]       0.00316681 [mEh/K]
    Vibrational Cv          1.888 [cal/(mol K)]        7.901 [J/(mol K)]       0.00300943 [mEh/K]
  Total Cv                  6.856 [cal/(mol K)]       28.687 [J/(mol K)]       0.01092645 [mEh/K]
  Correction Cv             0.000 [cal/(mol K)]        0.000 [J/(mol K)]       0.00000000 [mEh/K]

  Constant pressure heat capacity, Cp
    Electronic Cp           0.000 [cal/(mol K)]        0.000 [J/(mol K)]       0.00000000 [mEh/K]
    Translational Cp        4.968 [cal/(mol K)]       20.786 [J/(mol K)]       0.00791703 [mEh/K]
    Rotational Cp           1.987 [cal/(mol K)]        8.314 [J/(mol K)]       0.00316681 [mEh/K]
    Vibrational Cp          1.888 [cal/(mol K)]        7.901 [J/(mol K)]       0.00300943 [mEh/K]
  Total Cp                  8.844 [cal/(mol K)]       37.002 [J/(mol K)]       0.01409327 [mEh/K]
  Correction Cp             0.000 [cal/(mol K)]        0.000 [J/(mol K)]       0.00000000 [mEh/K]

  ==> Thermochemistry Energy Analysis <==

  Raw electronic energy, E0
  Total E0, Electronic energy at well bottom at 0 [K]                 -188.53761851 [Eh]

  Zero-point energy, ZPE_vib = Sum_i nu_i / 2
    Electronic ZPE          0.000 [kcal/mol]        0.000 [kJ/mol]       0.00000000 [Eh]
    Translational ZPE       0.000 [kcal/mol]        0.000 [kJ/mol]       0.00000000 [Eh]
    Rotational ZPE          0.000 [kcal/mol]        0.000 [kJ/mol]       0.00000000 [Eh]
    Vibrational ZPE         7.411 [kcal/mol]       31.007 [kJ/mol]       0.01181004 [Eh]        2592.003 [cm^-1]
  Correction ZPE            7.411 [kcal/mol]       31.007 [kJ/mol]       0.01181004 [Eh]        2592.003 [cm^-1]
  Total ZPE, Electronic energy at 0 [K]                               -188.52580847 [Eh]

  Thermal Energy, E (includes ZPE)
    Electronic E            0.000 [kcal/mol]        0.000 [kJ/mol]       0.00000000 [Eh]
    Translational E         0.889 [kcal/mol]        3.718 [kJ/mol]       0.00141628 [Eh]
    Rotational E            0.592 [kcal/mol]        2.479 [kJ/mol]       0.00094418 [Eh]
    Vibrational E           7.573 [kcal/mol]       31.687 [kJ/mol]       0.01206886 [Eh]
  Correction E              9.055 [kcal/mol]       37.884 [kJ/mol]       0.01442932 [Eh]
  Total E, Electronic energy at  298.15 [K]                           -188.52318919 [Eh]

  Enthalpy, H_trans = E_trans + k_B * T
    Electronic H            0.000 [kcal/mol]        0.000 [kJ/mol]       0.00000000 [Eh]
    Translational H         1.481 [kcal/mol]        6.197 [kJ/mol]       0.00236046 [Eh]
    Rotational H            0.592 [kcal/mol]        2.479 [kJ/mol]       0.00094418 [Eh]
    Vibrational H           7.573 [kcal/mol]       31.687 [kJ/mol]       0.01206886 [Eh]
  Correction H              9.647 [kcal/mol]       40.363 [kJ/mol]       0.01537351 [Eh]
  Total H, Enthalpy at  298.15 [K]                                    -188.52224500 [Eh]

  Gibbs free energy, G = H - T * S
    Electronic G            0.000 [kcal/mol]        0.000 [kJ/mol]       0.00000000 [Eh]
    Translational G        -9.631 [kcal/mol]      -40.296 [kJ/mol]      -0.01534777 [Eh]
    Rotational G           -3.310 [kcal/mol]      -13.851 [kJ/mol]      -0.00527561 [Eh]
    Vibrational G           7.362 [kcal/mol]       30.804 [kJ/mol]       0.01173274 [Eh]
  Correction G             -5.579 [kcal/mol]      -23.342 [kJ/mol]      -0.00889064 [Eh]
  Total G, Free enthalpy at  298.15 [K]                               -188.54650915 [Eh]

*** Psi4 exiting successfully. Buy a developer a beer!
