                               Psi4 1.3.2 release

  ==> Input File <==

--------------------------------------------------------------------------
memory 144 GB

molecule {
0 1
C 0.0000000000 0.0000000000 0.0000000000
O 0.0000000000 0.0000000000 1.1314000000
}

set dynamic_level 1
set basis cc-pV(D+d)Z

optimize("wB97X-V")
frequencies("wB97X-V")
--------------------------------------------------------------------------

    Molecular point group: c2v
  Charge       = 0
  Multiplicity = 1
  Basis Set: CC-PV(D+D)Z
    Blend: CC-PV(D+D)Z
  Basis Set: (CC-PV(D+D)Z AUX)
    Blend: CC-PVDZ-JKFIT
  @DF-RKS Final Energy:  -113.28793320571215
    Total Energy =                       -113.2879332057121502
    Molecular point group: c2v
  Basis Set: CC-PV(D+D)Z
    Blend: CC-PV(D+D)Z
  Basis Set: (CC-PV(D+D)Z AUX)
    Blend: CC-PVDZ-JKFIT
  @DF-RKS Final Energy:  -113.28794372823393
    Total Energy =                       -113.2879437282339268
  Basis Set: CC-PV(D+D)Z
    Blend: CC-PV(D+D)Z
  Basis Set: (CC-PV(D+D)Z AUX)
    Blend: CC-PVDZ-JKFIT
  @DF-RKS Final Energy:  -113.28791786216544
    Total Energy =                       -113.2879178621654574
  Basis Set: CC-PV(D+D)Z
    Blend: CC-PV(D+D)Z
  Basis Set: (CC-PV(D+D)Z AUX)
    Blend: CC-PVDZ-JKFIT
  @DF-RKS Final Energy:  -113.28795040631867
    Total Energy =                       -113.2879504063186715
  @DF-RKS Final Energy:  -113.28794954753458
    Total Energy =                       -113.2879495475345948
  @DF-RKS Final Energy:  -113.28794652274425
    Total Energy =                       -113.2879465227442495
  @DF-RKS Final Energy:  -113.28795064590871
    Total Energy =                       -113.2879506459087082
  @DF-RKS Final Energy:  -113.28794829387839
    Total Energy =                       -113.2879482938783866
  @DF-RKS Final Energy:  -113.28794826584753
    Total Energy =                       -113.2879482658475183
  **** Optimization is complete! (in 3 steps) ****
    Final optimized geometry and variables:
  @DF-RKS Final Energy:  -113.28795064590871
    Total Energy =                       -113.2879506459087082
  @DF-RKS Final Energy:  -113.28794829389562
    Total Energy =                       -113.2879482938956244
  Basis Set: CC-PV(D+D)Z
    Blend: CC-PV(D+D)Z
  Basis Set: (CC-PV(D+D)Z AUX)
    Blend: CC-PVDZ-JKFIT
  @DF-RKS Final Energy:  -113.28794826581390
    Total Energy =                       -113.2879482658138954
  Basis Set: CC-PV(D+D)Z
    Blend: CC-PV(D+D)Z
  Basis Set: (CC-PV(D+D)Z AUX)
    Blend: CC-PVDZ-JKFIT
  @DF-RKS Final Energy:  -113.28795064590875
    Total Energy =                       -113.2879506459087509
  Multiplicity = 1
  Basis Set: CC-PV(D+D)Z
    Blend: CC-PV(D+D)Z
  Basis Set: (CC-PV(D+D)Z AUX)
    Blend: CC-PVDZ-JKFIT
  @DF-RKS Final Energy:  -113.28794829389570
    Total Energy =                       -113.2879482938956954
    Molecular point group: c2v

    Geometry (in Angstrom), charge = 0, multiplicity = 1:

       Center              X                  Y                   Z               Mass
    ------------   -----------------  -----------------  -----------------  -----------------
         C            0.000000000000     0.000000000000    -0.647410421827    12.000000000000
         O            0.000000000000     0.000000000000     0.485712193325    15.994914619570

  Charge       = 0
  Multiplicity = 1
  Basis Set: CC-PV(D+D)Z
    Blend: CC-PV(D+D)Z
  Basis Set: (CC-PV(D+D)Z AUX)
    Blend: CC-PVDZ-JKFIT

    Orbital Energies [Eh]
    ---------------------

    Doubly Occupied:

       1A1   -19.331335     2A1   -10.397734     3A1    -1.289614
       4A1    -0.687995     1B1    -0.578886     1B2    -0.578886
       5A1    -0.482479

  @DF-RKS Final Energy:  -113.28794826581372

   => Energetics <=

    Nuclear Repulsion Energy =             22.4163791036525737
    One-Electron Energy =                -198.0957154529118895
    Two-Electron Energy =                  72.1749714768951236
    DFT Exchange-Correlation Energy =      -9.8427694479495429
    Empirical Dispersion Energy =           0.0000000000000000
    VV10 Nonlocal Energy =                  0.0591860545000064
    Total Energy =                       -113.2879482658137249

  Dipole Moment: [D]
     X:     0.0000      Y:     0.0000      Z:     0.1525     Total:     0.1525

  Vibration                       6
  Freq [cm^-1]                2236.4624
  Irrep                           A1
  Reduced mass [u]             13.4388
  Force const [mDyne/A]        39.6034

  ==> Thermochemistry Components <==

  Entropy, S
    Electronic S            0.000 [cal/(mol K)]        0.000 [J/(mol K)]       0.00000000 [mEh/K] (multiplicity = 1)
    Translational S        35.923 [cal/(mol K)]      150.302 [J/(mol K)]       0.05724692 [mEh/K] (mol. weight = 27.9949 [u], P = 101325.00 [Pa])
    Rotational S           11.299 [cal/(mol K)]       47.275 [J/(mol K)]       0.01800614 [mEh/K] (symmetry no. = 1)
    Vibrational S           0.000 [cal/(mol K)]        0.002 [J/(mol K)]       0.00000077 [mEh/K]
  Total S                  47.222 [cal/(mol K)]      197.579 [J/(mol K)]       0.07525383 [mEh/K]
  Correction S              0.000 [cal/(mol K)]        0.000 [J/(mol K)]       0.00000000 [mEh/K]

  Constant volume heat capacity, Cv
    Electronic Cv           0.000 [cal/(mol K)]        0.000 [J/(mol K)]       0.00000000 [mEh/K]
    Translational Cv        2.981 [cal/(mol K)]       12.472 [J/(mol K)]       0.00475022 [mEh/K]
    Rotational Cv           1.987 [cal/(mol K)]        8.314 [J/(mol K)]       0.00316681 [mEh/K]
    Vibrational Cv          0.005 [cal/(mol K)]        0.020 [J/(mol K)]       0.00000758 [mEh/K]
  Total Cv                  4.973 [cal/(mol K)]       20.806 [J/(mol K)]       0.00792461 [mEh/K]
  Correction Cv             0.000 [cal/(mol K)]        0.000 [J/(mol K)]       0.00000000 [mEh/K]

  Constant pressure heat capacity, Cp
    Electronic Cp           0.000 [cal/(mol K)]        0.000 [J/(mol K)]       0.00000000 [mEh/K]
    Translational Cp        4.968 [cal/(mol K)]       20.786 [J/(mol K)]       0.00791703 [mEh/K]
    Rotational Cp           1.987 [cal/(mol K)]        8.314 [J/(mol K)]       0.00316681 [mEh/K]
    Vibrational Cp          0.005 [cal/(mol K)]        0.020 [J/(mol K)]       0.00000758 [mEh/K]
  Total Cp                  6.960 [cal/(mol K)]       29.121 [J/(mol K)]       0.01109142 [mEh/K]
  Correction Cp             0.000 [cal/(mol K)]        0.000 [J/(mol K)]       0.00000000 [mEh/K]

  ==> Thermochemistry Energy Analysis <==

  Raw electronic energy, E0
  Total E0, Electronic energy at well bottom at 0 [K]                 -113.28795065 [Eh]

  Zero-point energy, ZPE_vib = Sum_i nu_i / 2
    Electronic ZPE          0.000 [kcal/mol]        0.000 [kJ/mol]       0.00000000 [Eh]
    Translational ZPE       0.000 [kcal/mol]        0.000 [kJ/mol]       0.00000000 [Eh]
    Rotational ZPE          0.000 [kcal/mol]        0.000 [kJ/mol]       0.00000000 [Eh]
    Vibrational ZPE         3.197 [kcal/mol]       13.377 [kJ/mol]       0.00509504 [Eh]        1118.231 [cm^-1]
  Correction ZPE            3.197 [kcal/mol]       13.377 [kJ/mol]       0.00509504 [Eh]        1118.231 [cm^-1]
  Total ZPE, Electronic energy at 0 [K]                               -113.28285561 [Eh]

  Thermal Energy, E (includes ZPE)
    Electronic E            0.000 [kcal/mol]        0.000 [kJ/mol]       0.00000000 [Eh]
    Translational E         0.889 [kcal/mol]        3.718 [kJ/mol]       0.00141628 [Eh]
    Rotational E            0.592 [kcal/mol]        2.479 [kJ/mol]       0.00094418 [Eh]
    Vibrational E           3.197 [kcal/mol]       13.378 [kJ/mol]       0.00509525 [Eh]
  Correction E              4.679 [kcal/mol]       19.575 [kJ/mol]       0.00745571 [Eh]
  Total E, Electronic energy at  298.15 [K]                           -113.28049494 [Eh]

  Enthalpy, H_trans = E_trans + k_B * T
    Electronic H            0.000 [kcal/mol]        0.000 [kJ/mol]       0.00000000 [Eh]
    Translational H         1.481 [kcal/mol]        6.197 [kJ/mol]       0.00236046 [Eh]
    Rotational H            0.592 [kcal/mol]        2.479 [kJ/mol]       0.00094418 [Eh]
    Vibrational H           3.197 [kcal/mol]       13.378 [kJ/mol]       0.00509525 [Eh]
  Correction H              5.271 [kcal/mol]       22.054 [kJ/mol]       0.00839989 [Eh]
  Total H, Enthalpy at  298.15 [K]                                    -113.27955075 [Eh]

  Gibbs free energy, G = H - T * S
    Electronic G            0.000 [kcal/mol]        0.000 [kJ/mol]       0.00000000 [Eh]
    Translational G        -9.229 [kcal/mol]      -38.615 [kJ/mol]      -0.01470771 [Eh]
    Rotational G           -2.776 [kcal/mol]      -11.616 [kJ/mol]      -0.00442435 [Eh]
    Vibrational G           3.197 [kcal/mol]       13.377 [kJ/mol]       0.00509502 [Eh]
  Correction G             -8.808 [kcal/mol]      -36.854 [kJ/mol]      -0.01403704 [Eh]
  Total G, Free enthalpy at  298.15 [K]                               -113.30198768 [Eh]

*** Psi4 exiting successfully. Buy a developer a beer!
