                               Psi4 1.3.2 release

  ==> Input File <==

--------------------------------------------------------------------------
memory 144 GB

molecule {
0 1
C 0.0000000000 0.0000000000 0.0000000000
S 0.0000000000 0.0000000000 1.5576337400
S 0.0000000000 0.0000000000 -1.5576337400
}

set dynamic_level 1
set basis cc-pV(D+d)Z

optimize("wB97X-V")
frequencies("wB97X-V")
--------------------------------------------------------------------------

    Molecular point group: d2h
  Charge       = 0
  Multiplicity = 1
  Basis Set: CC-PV(D+D)Z
    Blend: CC-PV(D+D)Z
  Basis Set: (CC-PV(D+D)Z AUX)
    Blend: CC-PVDZ-JKFIT
  @DF-RKS Final Energy:  -834.36113586997374
    Total Energy =                       -834.3611358699736229
    Molecular point group: d2h
  Basis Set: CC-PV(D+D)Z
    Blend: CC-PV(D+D)Z
  Basis Set: (CC-PV(D+D)Z AUX)
    Blend: CC-PVDZ-JKFIT
  @DF-RKS Final Energy:  -834.36113959726958
    Total Energy =                       -834.3611395972696982
  Basis Set: CC-PV(D+D)Z
    Blend: CC-PV(D+D)Z
  Basis Set: (CC-PV(D+D)Z AUX)
    Blend: CC-PVDZ-JKFIT
  @DF-RKS Final Energy:  -834.36113167787755
    Total Energy =                       -834.3611316778774381
  Basis Set: CC-PV(D+D)Z
    Blend: CC-PV(D+D)Z
  Basis Set: (CC-PV(D+D)Z AUX)
    Blend: CC-PVDZ-JKFIT
  @DF-RKS Final Energy:  -834.36115263609315
    Total Energy =                       -834.3611526360932658
  @DF-RKS Final Energy:  -834.36115242766084
    Total Energy =                       -834.3611524276608407
  @DF-RKS Final Energy:  -834.36115237270690
    Total Energy =                       -834.3611523727071244
  **** Optimization is complete! (in 2 steps) ****
    Final optimized geometry and variables:
  @DF-RKS Final Energy:  -834.36115263609395
    Total Energy =                       -834.3611526360938342
  @DF-RKS Final Energy:  -834.36115242766141
    Total Energy =                       -834.3611524276612954
  @DF-RKS Final Energy:  -834.36115237270690
    Total Energy =                       -834.3611523727068970
  @DF-RKS Final Energy:  -834.36115263609372
    Total Energy =                       -834.3611526360937205
  @DF-RKS Final Energy:  -834.36115242766118
    Total Energy =                       -834.3611524276610680
  Basis Set: CC-PV(D+D)Z
    Blend: CC-PV(D+D)Z
  Basis Set: (CC-PV(D+D)Z AUX)
    Blend: CC-PVDZ-JKFIT
  @DF-RKS Final Energy:  -834.36115237270735
    Total Energy =                       -834.3611523727072381
  Basis Set: CC-PV(D+D)Z
    Blend: CC-PV(D+D)Z
  Basis Set: (CC-PV(D+D)Z AUX)
    Blend: CC-PVDZ-JKFIT
  @DF-RKS Final Energy:  -834.36115140956599
    Total Energy =                       -834.3611514095659913
  Multiplicity = 1
  Basis Set: CC-PV(D+D)Z
    Blend: CC-PV(D+D)Z
  Basis Set: (CC-PV(D+D)Z AUX)
    Blend: CC-PVDZ-JKFIT
  @DF-RKS Final Energy:  -834.36115255546326
    Total Energy =                       -834.3611525554632635
    Molecular point group: c2v

    Geometry (in Angstrom), charge = 0, multiplicity = 1:

       Center              X                  Y                   Z               Mass
    ------------   -----------------  -----------------  -----------------  -----------------
         C           -0.000700864006     0.000000000000     0.000000000000    12.000000000000
         S            0.000131526794     0.000000000000     1.554858298727    31.972071174400
         S            0.000131526794     0.000000000000    -1.554858298727    31.972071174400

  Charge       = 0
  Multiplicity = 1
  Basis Set: CC-PV(D+D)Z
    Blend: CC-PV(D+D)Z
  Basis Set: (CC-PV(D+D)Z AUX)
    Blend: CC-PVDZ-JKFIT

    Orbital Energies [Eh]
    ---------------------

    Doubly Occupied:

       1B2   -88.905157     1A1   -88.905157     2A1   -10.420512
       2B2    -8.074234     3A1    -8.074213     3B2    -6.029712
       4A1    -6.029697     1A2    -6.024312     4B2    -6.024312
       1B1    -6.024309     5A1    -6.024309     6A1    -0.997859
       5B2    -0.899714     7A1    -0.620224     6B2    -0.535468
       8A1    -0.502163     2B1    -0.502163     2A2    -0.362116
       7B2    -0.362116

  @DF-RKS Final Energy:  -834.36115255529057

   => Energetics <=

    Nuclear Repulsion Energy =            108.9081191473280228
    One-Electron Energy =               -1366.9586594781590065
    Two-Electron Energy =                 466.0472738960714878
    DFT Exchange-Correlation Energy =     -42.5150173081274900
    Empirical Dispersion Energy =           0.0000000000000000
    VV10 Nonlocal Energy =                  0.1571311875963596
    Total Energy =                       -834.3611525552905732

  Dipole Moment: [D]
     X:     0.0003      Y:     0.0000      Z:     0.0000     Total:     0.0003

  Vibration                       6                   7                   8
  Freq [cm^-1]                 412.8562            413.2981            706.1907
  Irrep                          B2u                 B3u                  Ag
  Reduced mass [u]             13.3142             13.3142             31.9721
  Force const [mDyne/A]         1.3371              1.3400              9.3943

  Vibration                       9
  Freq [cm^-1]                1610.2302
  Irrep                          B1u
  Reduced mass [u]             13.3142
  Force const [mDyne/A]        20.3395

  ==> Thermochemistry Components <==

  Entropy, S
    Electronic S            0.000 [cal/(mol K)]        0.000 [J/(mol K)]       0.00000000 [mEh/K] (multiplicity = 1)
    Translational S        38.898 [cal/(mol K)]      162.748 [J/(mol K)]       0.06198752 [mEh/K] (mol. weight = 75.9441 [u], P = 101325.00 [Pa])
    Rotational S           15.613 [cal/(mol K)]       65.324 [J/(mol K)]       0.02488046 [mEh/K] (symmetry no. = 2)
    Vibrational S           2.138 [cal/(mol K)]        8.945 [J/(mol K)]       0.00340681 [mEh/K]
  Total S                  56.648 [cal/(mol K)]      237.016 [J/(mol K)]       0.09027479 [mEh/K]
  Correction S              0.000 [cal/(mol K)]        0.000 [J/(mol K)]       0.00000000 [mEh/K]

  Constant volume heat capacity, Cv
    Electronic Cv           0.000 [cal/(mol K)]        0.000 [J/(mol K)]       0.00000000 [mEh/K]
    Translational Cv        2.981 [cal/(mol K)]       12.472 [J/(mol K)]       0.00475022 [mEh/K]
    Rotational Cv           1.987 [cal/(mol K)]        8.314 [J/(mol K)]       0.00316681 [mEh/K]
    Vibrational Cv          3.752 [cal/(mol K)]       15.697 [J/(mol K)]       0.00597882 [mEh/K]
  Total Cv                  8.720 [cal/(mol K)]       36.484 [J/(mol K)]       0.01389585 [mEh/K]
  Correction Cv             0.000 [cal/(mol K)]        0.000 [J/(mol K)]       0.00000000 [mEh/K]

  Constant pressure heat capacity, Cp
    Electronic Cp           0.000 [cal/(mol K)]        0.000 [J/(mol K)]       0.00000000 [mEh/K]
    Translational Cp        4.968 [cal/(mol K)]       20.786 [J/(mol K)]       0.00791703 [mEh/K]
    Rotational Cp           1.987 [cal/(mol K)]        8.314 [J/(mol K)]       0.00316681 [mEh/K]
    Vibrational Cp          3.752 [cal/(mol K)]       15.697 [J/(mol K)]       0.00597882 [mEh/K]
  Total Cp                 10.707 [cal/(mol K)]       44.798 [J/(mol K)]       0.01706266 [mEh/K]
  Correction Cp             0.000 [cal/(mol K)]        0.000 [J/(mol K)]       0.00000000 [mEh/K]

  ==> Thermochemistry Energy Analysis <==

  Raw electronic energy, E0
  Total E0, Electronic energy at well bottom at 0 [K]                 -834.36115264 [Eh]

  Zero-point energy, ZPE_vib = Sum_i nu_i / 2
    Electronic ZPE          0.000 [kcal/mol]        0.000 [kJ/mol]       0.00000000 [Eh]
    Translational ZPE       0.000 [kcal/mol]        0.000 [kJ/mol]       0.00000000 [Eh]
    Rotational ZPE          0.000 [kcal/mol]        0.000 [kJ/mol]       0.00000000 [Eh]
    Vibrational ZPE         4.493 [kcal/mol]       18.797 [kJ/mol]       0.00715931 [Eh]        1571.288 [cm^-1]
  Correction ZPE            4.493 [kcal/mol]       18.797 [kJ/mol]       0.00715931 [Eh]        1571.288 [cm^-1]
  Total ZPE, Electronic energy at 0 [K]                               -834.35399332 [Eh]

  Thermal Energy, E (includes ZPE)
    Electronic E            0.000 [kcal/mol]        0.000 [kJ/mol]       0.00000000 [Eh]
    Translational E         0.889 [kcal/mol]        3.718 [kJ/mol]       0.00141628 [Eh]
    Rotational E            0.592 [kcal/mol]        2.479 [kJ/mol]       0.00094418 [Eh]
    Vibrational E           4.936 [kcal/mol]       20.653 [kJ/mol]       0.00786630 [Eh]
  Correction E              6.417 [kcal/mol]       26.850 [kJ/mol]       0.01022676 [Eh]
  Total E, Electronic energy at  298.15 [K]                           -834.35092587 [Eh]

  Enthalpy, H_trans = E_trans + k_B * T
    Electronic H            0.000 [kcal/mol]        0.000 [kJ/mol]       0.00000000 [Eh]
    Translational H         1.481 [kcal/mol]        6.197 [kJ/mol]       0.00236046 [Eh]
    Rotational H            0.592 [kcal/mol]        2.479 [kJ/mol]       0.00094418 [Eh]
    Vibrational H           4.936 [kcal/mol]       20.653 [kJ/mol]       0.00786630 [Eh]
  Correction H              7.010 [kcal/mol]       29.329 [kJ/mol]       0.01117095 [Eh]
  Total H, Enthalpy at  298.15 [K]                                    -834.34998169 [Eh]

  Gibbs free energy, G = H - T * S
    Electronic G            0.000 [kcal/mol]        0.000 [kJ/mol]       0.00000000 [Eh]
    Translational G       -10.116 [kcal/mol]      -42.326 [kJ/mol]      -0.01612112 [Eh]
    Rotational G           -4.062 [kcal/mol]      -16.997 [kJ/mol]      -0.00647393 [Eh]
    Vibrational G           4.299 [kcal/mol]       17.986 [kJ/mol]       0.00685056 [Eh]
  Correction G             -9.880 [kcal/mol]      -41.337 [kJ/mol]      -0.01574448 [Eh]
  Total G, Free enthalpy at  298.15 [K]                               -834.37689712 [Eh]

*** Psi4 exiting successfully. Buy a developer a beer!
