                               Psi4 1.3.2 release

  ==> Input File <==

--------------------------------------------------------------------------
memory 144 GB

molecule {
0 1
C 0.0000000000 0.0000000000 0.0000000000
S 0.0000000000 0.0000000000 1.5415329200
}

set dynamic_level 1
set basis cc-pV(D+d)Z

optimize("wB97X-V")
frequencies("wB97X-V")
--------------------------------------------------------------------------

    Molecular point group: c2v
  Charge       = 0
  Multiplicity = 1
  Basis Set: CC-PV(D+D)Z
    Blend: CC-PV(D+D)Z
  Basis Set: (CC-PV(D+D)Z AUX)
    Blend: CC-PVDZ-JKFIT
  @DF-RKS Final Energy:  -436.14585468061767
    Total Energy =                       -436.1458546806176173
    Molecular point group: c2v
  Basis Set: CC-PV(D+D)Z
    Blend: CC-PV(D+D)Z
  Basis Set: (CC-PV(D+D)Z AUX)
    Blend: CC-PVDZ-JKFIT
  @DF-RKS Final Energy:  -436.14583910983742
    Total Energy =                       -436.1458391098374818
  Basis Set: CC-PV(D+D)Z
    Blend: CC-PV(D+D)Z
  Basis Set: (CC-PV(D+D)Z AUX)
    Blend: CC-PVDZ-JKFIT
  @DF-RKS Final Energy:  -436.14586853385759
    Total Energy =                       -436.1458685338575947
  Basis Set: CC-PV(D+D)Z
    Blend: CC-PV(D+D)Z
  Basis Set: (CC-PV(D+D)Z AUX)
    Blend: CC-PVDZ-JKFIT
  @DF-RKS Final Energy:  -436.14591669590141
    Total Energy =                       -436.1459166959013487
  @DF-RKS Final Energy:  -436.14591504368491
    Total Energy =                       -436.1459150436849654
  @DF-RKS Final Energy:  -436.14591656422948
    Total Energy =                       -436.1459165642294238
  @DF-RKS Final Energy:  -436.14591685833363
    Total Energy =                       -436.1459168583336350
  @DF-RKS Final Energy:  -436.14591597991176
    Total Energy =                       -436.1459159799117060
  @DF-RKS Final Energy:  -436.14591594921870
    Total Energy =                       -436.1459159492185904
  **** Optimization is complete! (in 3 steps) ****
    Final optimized geometry and variables:
  @DF-RKS Final Energy:  -436.14591685833392
    Total Energy =                       -436.1459168583339192
  @DF-RKS Final Energy:  -436.14591597991193
    Total Energy =                       -436.1459159799119334
  Basis Set: CC-PV(D+D)Z
    Blend: CC-PV(D+D)Z
  Basis Set: (CC-PV(D+D)Z AUX)
    Blend: CC-PVDZ-JKFIT
  @DF-RKS Final Energy:  -436.14591594921853
    Total Energy =                       -436.1459159492184767
  Basis Set: CC-PV(D+D)Z
    Blend: CC-PV(D+D)Z
  Basis Set: (CC-PV(D+D)Z AUX)
    Blend: CC-PVDZ-JKFIT
  @DF-RKS Final Energy:  -436.14591685833375
    Total Energy =                       -436.1459168583337487
  Multiplicity = 1
  Basis Set: CC-PV(D+D)Z
    Blend: CC-PV(D+D)Z
  Basis Set: (CC-PV(D+D)Z AUX)
    Blend: CC-PVDZ-JKFIT
  @DF-RKS Final Energy:  -436.14591597991193
    Total Energy =                       -436.1459159799119334
    Molecular point group: c2v

    Geometry (in Angstrom), charge = 0, multiplicity = 1:

       Center              X                  Y                   Z               Mass
    ------------   -----------------  -----------------  -----------------  -----------------
         C            0.000000000000     0.000000000000    -1.114723196474    12.000000000000
         S            0.000000000000     0.000000000000     0.418386356164    31.972071174400

  Charge       = 0
  Multiplicity = 1
  Basis Set: CC-PV(D+D)Z
    Blend: CC-PV(D+D)Z
  Basis Set: (CC-PV(D+D)Z AUX)
    Blend: CC-PVDZ-JKFIT

    Orbital Energies [Eh]
    ---------------------

    Doubly Occupied:

       1A1   -88.917789     2A1   -10.381577     3A1    -8.090520
       1B2    -6.042180     1B1    -6.042180     4A1    -6.042093
       5A1    -0.967291     6A1    -0.633056     2B2    -0.453637
       2B1    -0.453637     7A1    -0.414807

  @DF-RKS Final Energy:  -436.14591594921848

   => Energetics <=

    Nuclear Repulsion Energy =             33.1359309169463785
    One-Electron Energy =                -665.9961910595142172
    Two-Electron Energy =                 219.6901642630990636
    DFT Exchange-Correlation Energy =     -23.0679563318988912
    Empirical Dispersion Energy =           0.0000000000000000
    VV10 Nonlocal Energy =                  0.0921362621492224
    Total Energy =                       -436.1459159492184767

  Dipole Moment: [D]
     X:     0.0000      Y:     0.0000      Z:     1.7823     Total:     1.7823

  Vibration                       6
  Freq [cm^-1]                1374.5540
  Irrep                           A1
  Reduced mass [u]             14.4661
  Force const [mDyne/A]        16.1037

  ==> Thermochemistry Components <==

  Entropy, S
    Electronic S            0.000 [cal/(mol K)]        0.000 [J/(mol K)]       0.00000000 [mEh/K] (multiplicity = 1)
    Translational S        37.269 [cal/(mol K)]      155.933 [J/(mol K)]       0.05939180 [mEh/K] (mol. weight = 43.9721 [u], P = 101325.00 [Pa])
    Rotational S           12.978 [cal/(mol K)]       54.302 [J/(mol K)]       0.02068237 [mEh/K] (symmetry no. = 1)
    Vibrational S           0.020 [cal/(mol K)]        0.084 [J/(mol K)]       0.00003185 [mEh/K]
  Total S                  50.267 [cal/(mol K)]      210.318 [J/(mol K)]       0.08010602 [mEh/K]
  Correction S              0.000 [cal/(mol K)]        0.000 [J/(mol K)]       0.00000000 [mEh/K]

  Constant volume heat capacity, Cv
    Electronic Cv           0.000 [cal/(mol K)]        0.000 [J/(mol K)]       0.00000000 [mEh/K]
    Translational Cv        2.981 [cal/(mol K)]       12.472 [J/(mol K)]       0.00475022 [mEh/K]
    Rotational Cv           1.987 [cal/(mol K)]        8.314 [J/(mol K)]       0.00316681 [mEh/K]
    Vibrational Cv          0.115 [cal/(mol K)]        0.483 [J/(mol K)]       0.00018385 [mEh/K]
  Total Cv                  5.083 [cal/(mol K)]       21.269 [J/(mol K)]       0.00810088 [mEh/K]
  Correction Cv             0.000 [cal/(mol K)]        0.000 [J/(mol K)]       0.00000000 [mEh/K]

  Constant pressure heat capacity, Cp
    Electronic Cp           0.000 [cal/(mol K)]        0.000 [J/(mol K)]       0.00000000 [mEh/K]
    Translational Cp        4.968 [cal/(mol K)]       20.786 [J/(mol K)]       0.00791703 [mEh/K]
    Rotational Cp           1.987 [cal/(mol K)]        8.314 [J/(mol K)]       0.00316681 [mEh/K]
    Vibrational Cp          0.115 [cal/(mol K)]        0.483 [J/(mol K)]       0.00018385 [mEh/K]
  Total Cp                  7.071 [cal/(mol K)]       29.583 [J/(mol K)]       0.01126769 [mEh/K]
  Correction Cp             0.000 [cal/(mol K)]        0.000 [J/(mol K)]       0.00000000 [mEh/K]

  ==> Thermochemistry Energy Analysis <==

  Raw electronic energy, E0
  Total E0, Electronic energy at well bottom at 0 [K]                 -436.14591686 [Eh]

  Zero-point energy, ZPE_vib = Sum_i nu_i / 2
    Electronic ZPE          0.000 [kcal/mol]        0.000 [kJ/mol]       0.00000000 [Eh]
    Translational ZPE       0.000 [kcal/mol]        0.000 [kJ/mol]       0.00000000 [Eh]
    Rotational ZPE          0.000 [kcal/mol]        0.000 [kJ/mol]       0.00000000 [Eh]
    Vibrational ZPE         1.965 [kcal/mol]        8.222 [kJ/mol]       0.00313146 [Eh]         687.277 [cm^-1]
  Correction ZPE            1.965 [kcal/mol]        8.222 [kJ/mol]       0.00313146 [Eh]         687.277 [cm^-1]
  Total ZPE, Electronic energy at 0 [K]                               -436.14278539 [Eh]

  Thermal Energy, E (includes ZPE)
    Electronic E            0.000 [kcal/mol]        0.000 [kJ/mol]       0.00000000 [Eh]
    Translational E         0.889 [kcal/mol]        3.718 [kJ/mol]       0.00141628 [Eh]
    Rotational E            0.592 [kcal/mol]        2.479 [kJ/mol]       0.00094418 [Eh]
    Vibrational E           1.970 [kcal/mol]        8.243 [kJ/mol]       0.00313972 [Eh]
  Correction E              3.451 [kcal/mol]       14.441 [kJ/mol]       0.00550018 [Eh]
  Total E, Electronic energy at  298.15 [K]                           -436.14041668 [Eh]

  Enthalpy, H_trans = E_trans + k_B * T
    Electronic H            0.000 [kcal/mol]        0.000 [kJ/mol]       0.00000000 [Eh]
    Translational H         1.481 [kcal/mol]        6.197 [kJ/mol]       0.00236046 [Eh]
    Rotational H            0.592 [kcal/mol]        2.479 [kJ/mol]       0.00094418 [Eh]
    Vibrational H           1.970 [kcal/mol]        8.243 [kJ/mol]       0.00313972 [Eh]
  Correction H              4.044 [kcal/mol]       16.920 [kJ/mol]       0.00644436 [Eh]
  Total H, Enthalpy at  298.15 [K]                                    -436.13947250 [Eh]

  Gibbs free energy, G = H - T * S
    Electronic G            0.000 [kcal/mol]        0.000 [kJ/mol]       0.00000000 [Eh]
    Translational G        -9.631 [kcal/mol]      -40.294 [kJ/mol]      -0.01534720 [Eh]
    Rotational G           -3.277 [kcal/mol]      -13.711 [kJ/mol]      -0.00522226 [Eh]
    Vibrational G           1.964 [kcal/mol]        8.218 [kJ/mol]       0.00313022 [Eh]
  Correction G            -10.943 [kcal/mol]      -45.787 [kJ/mol]      -0.01743925 [Eh]
  Total G, Free enthalpy at  298.15 [K]                               -436.16335610 [Eh]

*** Psi4 exiting successfully. Buy a developer a beer!
