                               Psi4 1.3.2 release

  ==> Input File <==

--------------------------------------------------------------------------
memory 144 GB

molecule {
0 1
F 0.0000000000 0.0000000000 0.0000000000
F 0.0000000000 0.0000000000 1.4129000000
}

set dynamic_level 1
set basis cc-pV(D+d)Z

optimize("wB97X-V")
frequencies("wB97X-V")
--------------------------------------------------------------------------

    Molecular point group: d2h
  Charge       = 0
  Multiplicity = 1
  Basis Set: CC-PV(D+D)Z
    Blend: CC-PV(D+D)Z
  Basis Set: (CC-PV(D+D)Z AUX)
    Blend: CC-PVDZ-JKFIT
  @DF-RKS Final Energy:  -199.44503536461139
    Total Energy =                       -199.4450353646113854
    Molecular point group: d2h
  Basis Set: CC-PV(D+D)Z
    Blend: CC-PV(D+D)Z
  Basis Set: (CC-PV(D+D)Z AUX)
    Blend: CC-PVDZ-JKFIT
  @DF-RKS Final Energy:  -199.44501189833449
    Total Energy =                       -199.4450118983344851
  Basis Set: CC-PV(D+D)Z
    Blend: CC-PV(D+D)Z
  Basis Set: (CC-PV(D+D)Z AUX)
    Blend: CC-PVDZ-JKFIT
  @DF-RKS Final Energy:  -199.44505788304005
    Total Energy =                       -199.4450578830400218
  Basis Set: CC-PV(D+D)Z
    Blend: CC-PV(D+D)Z
  Basis Set: (CC-PV(D+D)Z AUX)
    Blend: CC-PVDZ-JKFIT
  @DF-RKS Final Energy:  -199.44529917196249
    Total Energy =                       -199.4452991719624890
  @DF-RKS Final Energy:  -199.44529565294161
    Total Energy =                       -199.4452956529416099
  @DF-RKS Final Energy:  -199.44530164156086
    Total Energy =                       -199.4453016415608602
  @DF-RKS Final Energy:  -199.44530341103538
    Total Energy =                       -199.4453034110353826
  @DF-RKS Final Energy:  -199.44530305689139
    Total Energy =                       -199.4453030568913903
  @DF-RKS Final Energy:  -199.44530269972472
    Total Energy =                       -199.4453026997247207
  **** Optimization is complete! (in 3 steps) ****
    Final optimized geometry and variables:
  @DF-RKS Final Energy:  -199.44530341103541
    Total Energy =                       -199.4453034110354110
  @DF-RKS Final Energy:  -199.44530305689136
    Total Energy =                       -199.4453030568913618
  Basis Set: CC-PV(D+D)Z
    Blend: CC-PV(D+D)Z
  Basis Set: (CC-PV(D+D)Z AUX)
    Blend: CC-PVDZ-JKFIT
  @DF-RKS Final Energy:  -199.44530269972464
    Total Energy =                       -199.4453026997246354
  Basis Set: CC-PV(D+D)Z
    Blend: CC-PV(D+D)Z
  Basis Set: (CC-PV(D+D)Z AUX)
    Blend: CC-PVDZ-JKFIT
  @DF-RKS Final Energy:  -199.44530341103547
    Total Energy =                       -199.4453034110354395
  Multiplicity = 1
  Basis Set: CC-PV(D+D)Z
    Blend: CC-PV(D+D)Z
  Basis Set: (CC-PV(D+D)Z AUX)
    Blend: CC-PVDZ-JKFIT
  @DF-RKS Final Energy:  -199.44530305689133
    Total Energy =                       -199.4453030568913618
    Molecular point group: d2h

    Geometry (in Angstrom), charge = 0, multiplicity = 1:

       Center              X                  Y                   Z               Mass
    ------------   -----------------  -----------------  -----------------  -----------------
         F            0.000000000000     0.000000000000    -0.696130741828    18.998403162730
         F            0.000000000000     0.000000000000     0.696130741828    18.998403162730

  Charge       = 0
  Multiplicity = 1
  Basis Set: CC-PV(D+D)Z
    Blend: CC-PV(D+D)Z
  Basis Set: (CC-PV(D+D)Z AUX)
    Blend: CC-PVDZ-JKFIT

    Orbital Energies [Eh]
    ---------------------

    Doubly Occupied:

       1B1u  -24.872775     1Ag   -24.872762     2Ag    -1.481016
       2B1u   -1.221134     3Ag    -0.698226     1B3u   -0.645448
       1B2u   -0.645448     1B2g   -0.506639     1B3g   -0.506639

  @DF-RKS Final Energy:  -199.44530269972472

   => Energetics <=

    Nuclear Repulsion Energy =             30.7868561814521620
    One-Electron Energy =                -339.4142191830663933
    Two-Electron Energy =                 124.1395564929001267
    DFT Exchange-Correlation Energy =     -15.0346384538045292
    Empirical Dispersion Energy =           0.0000000000000000
    VV10 Nonlocal Energy =                  0.0771422627939342
    Total Energy =                       -199.4453026997247207

  Dipole Moment: [D]
     X:     0.0000      Y:     0.0000      Z:     0.0000     Total:     0.0000

  Vibration                       6
  Freq [cm^-1]                1061.2111
  Irrep                           Ag
  Reduced mass [u]             18.9984
  Force const [mDyne/A]        12.6058

  ==> Thermochemistry Components <==

  Entropy, S
    Electronic S            0.000 [cal/(mol K)]        0.000 [J/(mol K)]       0.00000000 [mEh/K] (multiplicity = 1)
    Translational S        36.834 [cal/(mol K)]      154.112 [J/(mol K)]       0.05869802 [mEh/K] (mol. weight = 37.9968 [u], P = 101325.00 [Pa])
    Rotational S           11.387 [cal/(mol K)]       47.643 [J/(mol K)]       0.01814631 [mEh/K] (symmetry no. = 2)
    Vibrational S           0.073 [cal/(mol K)]        0.305 [J/(mol K)]       0.00011636 [mEh/K]
  Total S                  48.294 [cal/(mol K)]      202.060 [J/(mol K)]       0.07696068 [mEh/K]
  Correction S              0.000 [cal/(mol K)]        0.000 [J/(mol K)]       0.00000000 [mEh/K]

  Constant volume heat capacity, Cv
    Electronic Cv           0.000 [cal/(mol K)]        0.000 [J/(mol K)]       0.00000000 [mEh/K]
    Translational Cv        2.981 [cal/(mol K)]       12.472 [J/(mol K)]       0.00475022 [mEh/K]
    Rotational Cv           1.987 [cal/(mol K)]        8.314 [J/(mol K)]       0.00316681 [mEh/K]
    Vibrational Cv          0.315 [cal/(mol K)]        1.317 [J/(mol K)]       0.00050176 [mEh/K]
  Total Cv                  5.283 [cal/(mol K)]       22.104 [J/(mol K)]       0.00841878 [mEh/K]
  Correction Cv             0.000 [cal/(mol K)]        0.000 [J/(mol K)]       0.00000000 [mEh/K]

  Constant pressure heat capacity, Cp
    Electronic Cp           0.000 [cal/(mol K)]        0.000 [J/(mol K)]       0.00000000 [mEh/K]
    Translational Cp        4.968 [cal/(mol K)]       20.786 [J/(mol K)]       0.00791703 [mEh/K]
    Rotational Cp           1.987 [cal/(mol K)]        8.314 [J/(mol K)]       0.00316681 [mEh/K]
    Vibrational Cp          0.315 [cal/(mol K)]        1.317 [J/(mol K)]       0.00050176 [mEh/K]
  Total Cp                  7.270 [cal/(mol K)]       30.418 [J/(mol K)]       0.01158559 [mEh/K]
  Correction Cp             0.000 [cal/(mol K)]        0.000 [J/(mol K)]       0.00000000 [mEh/K]

  ==> Thermochemistry Energy Analysis <==

  Raw electronic energy, E0
  Total E0, Electronic energy at well bottom at 0 [K]                 -199.44530341 [Eh]

  Zero-point energy, ZPE_vib = Sum_i nu_i / 2
    Electronic ZPE          0.000 [kcal/mol]        0.000 [kJ/mol]       0.00000000 [Eh]
    Translational ZPE       0.000 [kcal/mol]        0.000 [kJ/mol]       0.00000000 [Eh]
    Rotational ZPE          0.000 [kcal/mol]        0.000 [kJ/mol]       0.00000000 [Eh]
    Vibrational ZPE         1.517 [kcal/mol]        6.347 [kJ/mol]       0.00241762 [Eh]         530.606 [cm^-1]
  Correction ZPE            1.517 [kcal/mol]        6.347 [kJ/mol]       0.00241762 [Eh]         530.606 [cm^-1]
  Total ZPE, Electronic energy at 0 [K]                               -199.44288579 [Eh]

  Thermal Energy, E (includes ZPE)
    Electronic E            0.000 [kcal/mol]        0.000 [kJ/mol]       0.00000000 [Eh]
    Translational E         0.889 [kcal/mol]        3.718 [kJ/mol]       0.00141628 [Eh]
    Rotational E            0.592 [kcal/mol]        2.479 [kJ/mol]       0.00094418 [Eh]
    Vibrational E           1.535 [kcal/mol]        6.424 [kJ/mol]       0.00244665 [Eh]
  Correction E              3.017 [kcal/mol]       12.621 [kJ/mol]       0.00480712 [Eh]
  Total E, Electronic energy at  298.15 [K]                           -199.44049629 [Eh]

  Enthalpy, H_trans = E_trans + k_B * T
    Electronic H            0.000 [kcal/mol]        0.000 [kJ/mol]       0.00000000 [Eh]
    Translational H         1.481 [kcal/mol]        6.197 [kJ/mol]       0.00236046 [Eh]
    Rotational H            0.592 [kcal/mol]        2.479 [kJ/mol]       0.00094418 [Eh]
    Vibrational H           1.535 [kcal/mol]        6.424 [kJ/mol]       0.00244665 [Eh]
  Correction H              3.609 [kcal/mol]       15.100 [kJ/mol]       0.00575130 [Eh]
  Total H, Enthalpy at  298.15 [K]                                    -199.43955211 [Eh]

  Gibbs free energy, G = H - T * S
    Electronic G            0.000 [kcal/mol]        0.000 [kJ/mol]       0.00000000 [Eh]
    Translational G        -9.501 [kcal/mol]      -39.751 [kJ/mol]      -0.01514035 [Eh]
    Rotational G           -2.803 [kcal/mol]      -11.726 [kJ/mol]      -0.00446614 [Eh]
    Vibrational G           1.514 [kcal/mol]        6.333 [kJ/mol]       0.00241196 [Eh]
  Correction G            -10.790 [kcal/mol]      -45.144 [kJ/mol]      -0.01719452 [Eh]
  Total G, Free enthalpy at  298.15 [K]                               -199.46249794 [Eh]

*** Psi4 exiting successfully. Buy a developer a beer!
