                               Psi4 1.3.2 release

  ==> Input File <==

--------------------------------------------------------------------------
memory 144 GB

molecule {
0 1
O 0.0000000000 0.0000000000 0.0000000000
C 0.0000000000 0.0000000000 1.2066000000
H 0.9369544103 0.0000000000 1.7870836544
H -0.9369544103 0.0000000000 1.7870836544
}

set dynamic_level 1
set basis cc-pV(D+d)Z

optimize("wB97X-V")
frequencies("wB97X-V")
--------------------------------------------------------------------------

    Molecular point group: c2v
  Charge       = 0
  Multiplicity = 1
  Basis Set: CC-PV(D+D)Z
    Blend: CC-PV(D+D)Z
  Basis Set: (CC-PV(D+D)Z AUX)
    Blend: CC-PVDZ-JKFIT
  @DF-RKS Final Energy:  -114.46730737428216
    Total Energy =                       -114.4673073742821572
    Molecular point group: c2v
  Basis Set: CC-PV(D+D)Z
    Blend: CC-PV(D+D)Z
  Basis Set: (CC-PV(D+D)Z AUX)
    Blend: CC-PVDZ-JKFIT
  @DF-RKS Final Energy:  -114.46730198388651
    Total Energy =                       -114.4673019838865144
  Basis Set: CC-PV(D+D)Z
    Blend: CC-PV(D+D)Z
  Basis Set: (CC-PV(D+D)Z AUX)
    Blend: CC-PVDZ-JKFIT
  @DF-RKS Final Energy:  -114.46730969727679
    Total Energy =                       -114.4673096972768036
  Basis Set: CC-PV(D+D)Z
    Blend: CC-PV(D+D)Z
  Basis Set: (CC-PV(D+D)Z AUX)
    Blend: CC-PVDZ-JKFIT
  @DF-RKS Final Energy:  -114.46735124482758
    Total Energy =                       -114.4673512448275829
  @DF-RKS Final Energy:  -114.46725934916716
    Total Energy =                       -114.4672593491671506
  @DF-RKS Final Energy:  -114.46724965424298
    Total Energy =                       -114.4672496542429627
  @DF-RKS Final Energy:  -114.46735803194260
    Total Energy =                       -114.4673580319425810
  @DF-RKS Final Energy:  -114.46760671405802
    Total Energy =                       -114.4676067140580074
  @DF-RKS Final Energy:  -114.46760024719482
    Total Energy =                       -114.4676002471948237
  @DF-RKS Final Energy:  -114.46761010817964
    Total Energy =                       -114.4676101081796418
  @DF-RKS Final Energy:  -114.46761114136929
    Total Energy =                       -114.4676111413693036
  @DF-RKS Final Energy:  -114.46759828847533
    Total Energy =                       -114.4675982884753438
  @DF-RKS Final Energy:  -114.46760410156620
    Total Energy =                       -114.4676041015662094
  @DF-RKS Final Energy:  -114.46760279931803
    Total Energy =                       -114.4676027993180440
  @DF-RKS Final Energy:  -114.46761630462505
    Total Energy =                       -114.4676163046250394
  @DF-RKS Final Energy:  -114.46761386649113
    Total Energy =                       -114.4676138664911491
  @DF-RKS Final Energy:  -114.46761564188222
    Total Energy =                       -114.4676156418822046
  @DF-RKS Final Energy:  -114.46761546091426
    Total Energy =                       -114.4676154609142600
  @DF-RKS Final Energy:  -114.46761314287801
    Total Energy =                       -114.4676131428780224
  @DF-RKS Final Energy:  -114.46761395946228
    Total Energy =                       -114.4676139594622839
  **** Optimization is complete! (in 4 steps) ****
    Final optimized geometry and variables:
  @DF-RKS Final Energy:  -114.46761361118119
    Total Energy =                       -114.4676136111811928
  @DF-RKS Final Energy:  -114.46761353643049
    Total Energy =                       -114.4676135364304912
  @DF-RKS Final Energy:  -114.46761682167235
    Total Energy =                       -114.4676168216723653
  @DF-RKS Final Energy:  -114.46761528112877
    Total Energy =                       -114.4676152811287722
  @DF-RKS Final Energy:  -114.46761525514702
    Total Energy =                       -114.4676152551470238
  @DF-RKS Final Energy:  -114.46761483865188
    Total Energy =                       -114.4676148386518832
  @DF-RKS Final Energy:  -114.46761479433138
    Total Energy =                       -114.4676147943313964
  @DF-RKS Final Energy:  -114.46761361118108
    Total Energy =                       -114.4676136111810649
  @DF-RKS Final Energy:  -114.46761353643063
    Total Energy =                       -114.4676135364306333
  @DF-RKS Final Energy:  -114.46761359058625
    Total Energy =                       -114.4676135905862537
  @DF-RKS Final Energy:  -114.46761365904042
    Total Energy =                       -114.4676136590404383
  @DF-RKS Final Energy:  -114.46761218488366
    Total Energy =                       -114.4676121848836630
  @DF-RKS Final Energy:  -114.46761228357050
    Total Energy =                       -114.4676122835705030
  @DF-RKS Final Energy:  -114.46761408104953
    Total Energy =                       -114.4676140810495326
  @DF-RKS Final Energy:  -114.46761421450557
    Total Energy =                       -114.4676142145055735
  @DF-RKS Final Energy:  -114.46761606655393
    Total Energy =                       -114.4676160665539300
  Basis Set: CC-PV(D+D)Z
    Blend: CC-PV(D+D)Z
  Basis Set: (CC-PV(D+D)Z AUX)
    Blend: CC-PVDZ-JKFIT
  @DF-RKS Final Energy:  -114.46761258727686
    Total Energy =                       -114.4676125872768608
  Basis Set: CC-PV(D+D)Z
    Blend: CC-PV(D+D)Z
  Basis Set: (CC-PV(D+D)Z AUX)
    Blend: CC-PVDZ-JKFIT
  @DF-RKS Final Energy:  -114.46761189782997
    Total Energy =                       -114.4676118978299684
  Multiplicity = 1
  Basis Set: CC-PV(D+D)Z
    Blend: CC-PV(D+D)Z
  Basis Set: (CC-PV(D+D)Z AUX)
    Blend: CC-PVDZ-JKFIT
  @DF-RKS Final Energy:  -114.46761189784651
    Total Energy =                       -114.4676118978465098
    Molecular point group: cs

    Geometry (in Angstrom), charge = 0, multiplicity = 1:

       Center              X                  Y                   Z               Mass
    ------------   -----------------  -----------------  -----------------  -----------------
         O            0.000000000000    -0.000098134065    -0.602196860677    15.994914619570
         C            0.000000000000     0.000394742094     0.601451376390    12.000000000000
         H            0.945866449897    -0.001571333828     1.197961340905     1.007825032230
         H           -0.945866449897    -0.001571333828     1.197961340905     1.007825032230

  Charge       = 0
  Multiplicity = 1
  Basis Set: CC-PV(D+D)Z
    Blend: CC-PV(D+D)Z
  Basis Set: (CC-PV(D+D)Z AUX)
    Blend: CC-PVDZ-JKFIT

    Orbital Energies [Eh]
    ---------------------

    Doubly Occupied:

       1Ap   -19.241276     2Ap   -10.383025     3Ap    -1.189140
       4Ap    -0.752698     1App   -0.604296     5Ap    -0.557360
       6Ap    -0.504262     2App   -0.366987

  @DF-RKS Final Energy:  -114.46761613955961

   => Energetics <=

    Nuclear Repulsion Energy =             31.2248902375414552
    One-Electron Energy =                -217.3311153533024935
    Two-Electron Energy =                  81.8492454462399905
    DFT Exchange-Correlation Energy =     -10.2772287327187311
    Empirical Dispersion Energy =           0.0000000000000000
    VV10 Nonlocal Energy =                  0.0665922626801818
    Total Energy =                       -114.4676161395595955

  Dipole Moment: [D]
     X:     0.0000      Y:    -0.0006      Z:     2.1786     Total:     2.1786

  Vibration                       7                   8                   9
  Freq [cm^-1]                1200.8184           1263.1870           1523.6136
  Irrep                           B2                  B1                  A1
  Reduced mass [u]              1.3717              1.3478              1.0918
  Force const [mDyne/A]         1.1654              1.2671              1.4932

  Vibration                       10                  11                  12
  Freq [cm^-1]                1867.8938           2928.9033           2991.9951
  Irrep                           A1                  A1                  B1
  Reduced mass [u]              7.9103              1.0475              1.1208
  Force const [mDyne/A]        16.2610              5.2943              5.9117

  ==> Thermochemistry Components <==

  Entropy, S
    Electronic S            0.000 [cal/(mol K)]        0.000 [J/(mol K)]       0.00000000 [mEh/K] (multiplicity = 1)
    Translational S        36.130 [cal/(mol K)]      151.169 [J/(mol K)]       0.05757719 [mEh/K] (mol. weight = 30.0106 [u], P = 101325.00 [Pa])
    Rotational S           16.037 [cal/(mol K)]       67.097 [J/(mol K)]       0.02555581 [mEh/K] (symmetry no. = 2)
    Vibrational S           0.086 [cal/(mol K)]        0.360 [J/(mol K)]       0.00013728 [mEh/K]
  Total S                  52.253 [cal/(mol K)]      218.626 [J/(mol K)]       0.08327028 [mEh/K]
  Correction S              0.000 [cal/(mol K)]        0.000 [J/(mol K)]       0.00000000 [mEh/K]

  Constant volume heat capacity, Cv
    Electronic Cv           0.000 [cal/(mol K)]        0.000 [J/(mol K)]       0.00000000 [mEh/K]
    Translational Cv        2.981 [cal/(mol K)]       12.472 [J/(mol K)]       0.00475022 [mEh/K]
    Rotational Cv           2.981 [cal/(mol K)]       12.472 [J/(mol K)]       0.00475022 [mEh/K]
    Vibrational Cv          0.461 [cal/(mol K)]        1.927 [J/(mol K)]       0.00073388 [mEh/K]
  Total Cv                  6.422 [cal/(mol K)]       26.870 [J/(mol K)]       0.01023431 [mEh/K]
  Correction Cv             0.000 [cal/(mol K)]        0.000 [J/(mol K)]       0.00000000 [mEh/K]

  Constant pressure heat capacity, Cp
    Electronic Cp           0.000 [cal/(mol K)]        0.000 [J/(mol K)]       0.00000000 [mEh/K]
    Translational Cp        4.968 [cal/(mol K)]       20.786 [J/(mol K)]       0.00791703 [mEh/K]
    Rotational Cp           2.981 [cal/(mol K)]       12.472 [J/(mol K)]       0.00475022 [mEh/K]
    Vibrational Cp          0.461 [cal/(mol K)]        1.927 [J/(mol K)]       0.00073388 [mEh/K]
  Total Cp                  8.409 [cal/(mol K)]       35.185 [J/(mol K)]       0.01340112 [mEh/K]
  Correction Cp             0.000 [cal/(mol K)]        0.000 [J/(mol K)]       0.00000000 [mEh/K]

  ==> Thermochemistry Energy Analysis <==

  Raw electronic energy, E0
  Total E0, Electronic energy at well bottom at 0 [K]                 -114.46761682 [Eh]

  Zero-point energy, ZPE_vib = Sum_i nu_i / 2
    Electronic ZPE          0.000 [kcal/mol]        0.000 [kJ/mol]       0.00000000 [Eh]
    Translational ZPE       0.000 [kcal/mol]        0.000 [kJ/mol]       0.00000000 [Eh]
    Rotational ZPE          0.000 [kcal/mol]        0.000 [kJ/mol]       0.00000000 [Eh]
    Vibrational ZPE        16.835 [kcal/mol]       70.439 [kJ/mol]       0.02682864 [Eh]        5888.206 [cm^-1]
  Correction ZPE           16.835 [kcal/mol]       70.439 [kJ/mol]       0.02682864 [Eh]        5888.206 [cm^-1]
  Total ZPE, Electronic energy at 0 [K]                               -114.44078818 [Eh]

  Thermal Energy, E (includes ZPE)
    Electronic E            0.000 [kcal/mol]        0.000 [kJ/mol]       0.00000000 [Eh]
    Translational E         0.889 [kcal/mol]        3.718 [kJ/mol]       0.00141628 [Eh]
    Rotational E            0.889 [kcal/mol]        3.718 [kJ/mol]       0.00141628 [Eh]
    Vibrational E          16.857 [kcal/mol]       70.531 [kJ/mol]       0.02686384 [Eh]
  Correction E             18.635 [kcal/mol]       77.968 [kJ/mol]       0.02969639 [Eh]
  Total E, Electronic energy at  298.15 [K]                           -114.43792043 [Eh]

  Enthalpy, H_trans = E_trans + k_B * T
    Electronic H            0.000 [kcal/mol]        0.000 [kJ/mol]       0.00000000 [Eh]
    Translational H         1.481 [kcal/mol]        6.197 [kJ/mol]       0.00236046 [Eh]
    Rotational H            0.889 [kcal/mol]        3.718 [kJ/mol]       0.00141628 [Eh]
    Vibrational H          16.857 [kcal/mol]       70.531 [kJ/mol]       0.02686384 [Eh]
  Correction H             19.227 [kcal/mol]       80.447 [kJ/mol]       0.03064058 [Eh]
  Total H, Enthalpy at  298.15 [K]                                    -114.43697624 [Eh]

  Gibbs free energy, G = H - T * S
    Electronic G            0.000 [kcal/mol]        0.000 [kJ/mol]       0.00000000 [Eh]
    Translational G        -9.291 [kcal/mol]      -38.874 [kJ/mol]      -0.01480618 [Eh]
    Rotational G           -3.893 [kcal/mol]      -16.286 [kJ/mol]      -0.00620319 [Eh]
    Vibrational G          16.832 [kcal/mol]       70.424 [kJ/mol]       0.02682291 [Eh]
  Correction G              3.648 [kcal/mol]       15.263 [kJ/mol]       0.00581354 [Eh]
  Total G, Free enthalpy at  298.15 [K]                               -114.46180328 [Eh]

*** Psi4 exiting successfully. Buy a developer a beer!
