                               Psi4 1.3.2 release

  ==> Input File <==

--------------------------------------------------------------------------
memory 144 GB

molecule {
0 1
S 0.0000000000 0.0000000000 0.0000000000
C 0.0000000000 0.0000000000 1.2066000000
H 0.9369544103 0.0000000000 1.7870836544
H -0.9369544103 0.0000000000 1.7870836544
}

set dynamic_level 1
set basis cc-pV(D+d)Z

optimize("wB97X-V")
frequencies("wB97X-V")
--------------------------------------------------------------------------

    Molecular point group: c2v
  Charge       = 0
  Multiplicity = 1
  Basis Set: CC-PV(D+D)Z
    Blend: CC-PV(D+D)Z
  Basis Set: (CC-PV(D+D)Z AUX)
    Blend: CC-PVDZ-JKFIT
  @DF-RKS Final Energy:  -437.10052140763310
    Total Energy =                       -437.1005214076330390
    Molecular point group: c2v
  Basis Set: CC-PV(D+D)Z
    Blend: CC-PV(D+D)Z
  Basis Set: (CC-PV(D+D)Z AUX)
    Blend: CC-PVDZ-JKFIT
  @DF-RKS Final Energy:  -437.10226578597616
    Total Energy =                       -437.1022657859761580
  Basis Set: CC-PV(D+D)Z
    Blend: CC-PV(D+D)Z
  Basis Set: (CC-PV(D+D)Z AUX)
    Blend: CC-PVDZ-JKFIT
  @DF-RKS Final Energy:  -437.09876895386924
    Total Energy =                       -437.0987689538692393
  Basis Set: CC-PV(D+D)Z
    Blend: CC-PV(D+D)Z
  Basis Set: (CC-PV(D+D)Z AUX)
    Blend: CC-PVDZ-JKFIT
  @DF-RKS Final Energy:  -437.10011382050300
    Total Energy =                       -437.1001138205029974
  @DF-RKS Final Energy:  -437.10092407566509
    Total Energy =                       -437.1009240756650911
  @DF-RKS Final Energy:  -437.10052634604506
    Total Energy =                       -437.1005263460450578
  @DF-RKS Final Energy:  -437.10050998654526
    Total Energy =                       -437.1005099865453758
  @DF-RKS Final Energy:  -437.29654094091995
    Total Energy =                       -437.2965409409199538
  @DF-RKS Final Energy:  -437.29731233978168
    Total Energy =                       -437.2973123397816835
  @DF-RKS Final Energy:  -437.29576517526664
    Total Energy =                       -437.2957651752665811
  @DF-RKS Final Energy:  -437.29632052452990
    Total Energy =                       -437.2963205245299037
  @DF-RKS Final Energy:  -437.29675686564042
    Total Energy =                       -437.2967568656404183
  @DF-RKS Final Energy:  -437.29656263835091
    Total Energy =                       -437.2965626383509061
  @DF-RKS Final Energy:  -437.29651290176696
    Total Energy =                       -437.2965129017669597
  @DF-RKS Final Energy:  -437.36334656519801
    Total Energy =                       -437.3633465651980146
  @DF-RKS Final Energy:  -437.36369209502567
    Total Energy =                       -437.3636920950256695
  @DF-RKS Final Energy:  -437.36299833423936
    Total Energy =                       -437.3629983342394212
  @DF-RKS Final Energy:  -437.36323035663253
    Total Energy =                       -437.3632303566325277
  @DF-RKS Final Energy:  -437.36345841231559
    Total Energy =                       -437.3634584123155378
  @DF-RKS Final Energy:  -437.36334892456438
    Total Energy =                       -437.3633489245643204
  **** Optimization is complete! (in 9 steps) ****
    Final optimized geometry and variables:
  @DF-RKS Final Energy:  -437.39132048266754
    Total Energy =                       -437.3913204826675951
  @DF-RKS Final Energy:  -437.39132047752543
    Total Energy =                       -437.3913204775254826
  @DF-RKS Final Energy:  -437.39132401893767
    Total Energy =                       -437.3913240189376666
  @DF-RKS Final Energy:  -437.39132340666703
    Total Energy =                       -437.3913234066670270
  @DF-RKS Final Energy:  -437.39132336096901
    Total Energy =                       -437.3913233609690110
  @DF-RKS Final Energy:  -437.39132199087896
    Total Energy =                       -437.3913219908789074
  @DF-RKS Final Energy:  -437.39132197297732
    Total Energy =                       -437.3913219729773232
  @DF-RKS Final Energy:  -437.39132048266760
    Total Energy =                       -437.3913204826675951
  @DF-RKS Final Energy:  -437.39132047752537
    Total Energy =                       -437.3913204775254258
  @DF-RKS Final Energy:  -437.39132150812361
    Total Energy =                       -437.3913215081236103
  @DF-RKS Final Energy:  -437.39132157103160
    Total Energy =                       -437.3913215710315967
  @DF-RKS Final Energy:  -437.39131978954237
    Total Energy =                       -437.3913197895423650
  @DF-RKS Final Energy:  -437.39131983959919
    Total Energy =                       -437.3913198395992481
  @DF-RKS Final Energy:  -437.39132159299692
    Total Energy =                       -437.3913215929969169
  @DF-RKS Final Energy:  -437.39132163343425
    Total Energy =                       -437.3913216334342451
  @DF-RKS Final Energy:  -437.39132354389909
    Total Energy =                       -437.3913235438991478
  Basis Set: CC-PV(D+D)Z
    Blend: CC-PV(D+D)Z
  Basis Set: (CC-PV(D+D)Z AUX)
    Blend: CC-PVDZ-JKFIT
  @DF-RKS Final Energy:  -437.39131919786911
    Total Energy =                       -437.3913191978691088
  Basis Set: CC-PV(D+D)Z
    Blend: CC-PV(D+D)Z
  Basis Set: (CC-PV(D+D)Z AUX)
    Blend: CC-PVDZ-JKFIT
  @DF-RKS Final Energy:  -437.39131877688050
    Total Energy =                       -437.3913187768804960
  Multiplicity = 1
  Basis Set: CC-PV(D+D)Z
    Blend: CC-PV(D+D)Z
  Basis Set: (CC-PV(D+D)Z AUX)
    Blend: CC-PVDZ-JKFIT
  @DF-RKS Final Energy:  -437.39131877682519
    Total Energy =                       -437.3913187768251873
    Molecular point group: cs

    Geometry (in Angstrom), charge = 0, multiplicity = 1:

       Center              X                  Y                   Z               Mass
    ------------   -----------------  -----------------  -----------------  -----------------
         S            0.000000000000    -0.000037401655    -0.514184542737    31.972071174400
         C            0.000000000000     0.000371922798     1.088579650499    12.000000000000
         H            0.931951115559    -0.001620948618     1.675186110279     1.007825032230
         H           -0.931951115559    -0.001620948618     1.675186110279     1.007825032230

  Charge       = 0
  Multiplicity = 1
  Basis Set: CC-PV(D+D)Z
    Blend: CC-PV(D+D)Z
  Basis Set: (CC-PV(D+D)Z AUX)
    Blend: CC-PVDZ-JKFIT

    Orbital Energies [Eh]
    ---------------------

    Doubly Occupied:

       1Ap   -88.871026     2Ap   -10.358778     3Ap    -8.038959
       4Ap    -5.995334     5Ap    -5.993367     1App   -5.984110
       6Ap    -0.931349     7Ap    -0.718377     2App   -0.572855
       8Ap    -0.498406     9Ap    -0.418682     3App   -0.328123

  @DF-RKS Final Energy:  -437.39132350886246

   => Energetics <=

    Nuclear Repulsion Energy =             44.8628982278519217
    One-Electron Energy =                -691.1573462656874653
    Two-Electron Energy =                 232.3151589931476337
    DFT Exchange-Correlation Energy =     -23.5113829711995876
    Empirical Dispersion Energy =           0.0000000000000000
    VV10 Nonlocal Energy =                  0.0993485070250401
    Total Energy =                       -437.3913235088624560

  Dipole Moment: [D]
     X:     0.0000      Y:    -0.0025      Z:     1.7123     Total:     1.7123

  Vibration                       7                   8                   9
  Freq [cm^-1]                1001.9290           1038.4041           1145.8050
  Irrep                           B1                  B2                  A1
  Reduced mass [u]              1.2100              1.2977              3.8065
  Force const [mDyne/A]         0.7157              0.8244              2.9444

  Vibration                       10                  11                  12
  Freq [cm^-1]                1487.7245           3098.9681           3192.4822
  Irrep                           A1                  A1                  B1
  Reduced mass [u]              1.2508              1.0527              1.1196
  Force const [mDyne/A]         1.6311              5.9566              6.7233

  ==> Thermochemistry Components <==

  Entropy, S
    Electronic S            0.000 [cal/(mol K)]        0.000 [J/(mol K)]       0.00000000 [mEh/K] (multiplicity = 1)
    Translational S        37.403 [cal/(mol K)]      156.492 [J/(mol K)]       0.05960470 [mEh/K] (mol. weight = 45.9877 [u], P = 101325.00 [Pa])
    Rotational S           17.481 [cal/(mol K)]       73.139 [J/(mol K)]       0.02785715 [mEh/K] (symmetry no. = 2)
    Vibrational S           0.237 [cal/(mol K)]        0.992 [J/(mol K)]       0.00037770 [mEh/K]
  Total S                  55.120 [cal/(mol K)]      230.623 [J/(mol K)]       0.08783956 [mEh/K]
  Correction S              0.000 [cal/(mol K)]        0.000 [J/(mol K)]       0.00000000 [mEh/K]

  Constant volume heat capacity, Cv
    Electronic Cv           0.000 [cal/(mol K)]        0.000 [J/(mol K)]       0.00000000 [mEh/K]
    Translational Cv        2.981 [cal/(mol K)]       12.472 [J/(mol K)]       0.00475022 [mEh/K]
    Rotational Cv           2.981 [cal/(mol K)]       12.472 [J/(mol K)]       0.00475022 [mEh/K]
    Vibrational Cv          1.034 [cal/(mol K)]        4.325 [J/(mol K)]       0.00164714 [mEh/K]
  Total Cv                  6.995 [cal/(mol K)]       29.268 [J/(mol K)]       0.01114757 [mEh/K]
  Correction Cv             0.000 [cal/(mol K)]        0.000 [J/(mol K)]       0.00000000 [mEh/K]

  Constant pressure heat capacity, Cp
    Electronic Cp           0.000 [cal/(mol K)]        0.000 [J/(mol K)]       0.00000000 [mEh/K]
    Translational Cp        4.968 [cal/(mol K)]       20.786 [J/(mol K)]       0.00791703 [mEh/K]
    Rotational Cp           2.981 [cal/(mol K)]       12.472 [J/(mol K)]       0.00475022 [mEh/K]
    Vibrational Cp          1.034 [cal/(mol K)]        4.325 [J/(mol K)]       0.00164714 [mEh/K]
  Total Cp                  8.982 [cal/(mol K)]       37.582 [J/(mol K)]       0.01431438 [mEh/K]
  Correction Cp             0.000 [cal/(mol K)]        0.000 [J/(mol K)]       0.00000000 [mEh/K]

  ==> Thermochemistry Energy Analysis <==

  Raw electronic energy, E0
  Total E0, Electronic energy at well bottom at 0 [K]                 -437.39132402 [Eh]

  Zero-point energy, ZPE_vib = Sum_i nu_i / 2
    Electronic ZPE          0.000 [kcal/mol]        0.000 [kJ/mol]       0.00000000 [Eh]
    Translational ZPE       0.000 [kcal/mol]        0.000 [kJ/mol]       0.00000000 [Eh]
    Rotational ZPE          0.000 [kcal/mol]        0.000 [kJ/mol]       0.00000000 [Eh]
    Vibrational ZPE        15.676 [kcal/mol]       65.587 [kJ/mol]       0.02498082 [Eh]        5482.656 [cm^-1]
  Correction ZPE           15.676 [kcal/mol]       65.587 [kJ/mol]       0.02498082 [Eh]        5482.656 [cm^-1]
  Total ZPE, Electronic energy at 0 [K]                               -437.36634320 [Eh]

  Thermal Energy, E (includes ZPE)
    Electronic E            0.000 [kcal/mol]        0.000 [kJ/mol]       0.00000000 [Eh]
    Translational E         0.889 [kcal/mol]        3.718 [kJ/mol]       0.00141628 [Eh]
    Rotational E            0.889 [kcal/mol]        3.718 [kJ/mol]       0.00141628 [Eh]
    Vibrational E          15.735 [kcal/mol]       65.835 [kJ/mol]       0.02507511 [Eh]
  Correction E             17.512 [kcal/mol]       73.272 [kJ/mol]       0.02790767 [Eh]
  Total E, Electronic energy at  298.15 [K]                           -437.36341635 [Eh]

  Enthalpy, H_trans = E_trans + k_B * T
    Electronic H            0.000 [kcal/mol]        0.000 [kJ/mol]       0.00000000 [Eh]
    Translational H         1.481 [kcal/mol]        6.197 [kJ/mol]       0.00236046 [Eh]
    Rotational H            0.889 [kcal/mol]        3.718 [kJ/mol]       0.00141628 [Eh]
    Vibrational H          15.735 [kcal/mol]       65.835 [kJ/mol]       0.02507511 [Eh]
  Correction H             18.105 [kcal/mol]       75.751 [kJ/mol]       0.02885185 [Eh]
  Total H, Enthalpy at  298.15 [K]                                    -437.36247217 [Eh]

  Gibbs free energy, G = H - T * S
    Electronic G            0.000 [kcal/mol]        0.000 [kJ/mol]       0.00000000 [Eh]
    Translational G        -9.670 [kcal/mol]      -40.461 [kJ/mol]      -0.01541068 [Eh]
    Rotational G           -4.323 [kcal/mol]      -18.088 [kJ/mol]      -0.00688933 [Eh]
    Vibrational G          15.664 [kcal/mol]       65.539 [kJ/mol]       0.02496250 [Eh]
  Correction G              1.671 [kcal/mol]        6.990 [kJ/mol]       0.00266249 [Eh]
  Total G, Free enthalpy at  298.15 [K]                               -437.38866153 [Eh]

*** Psi4 exiting successfully. Buy a developer a beer!
