                               Psi4 1.3.2 release

  ==> Input File <==

--------------------------------------------------------------------------
memory 144 GB

molecule {
0 1
O 0.0000000000 0.0000000000 0.0000000000
H 0.0000000000 0.0000000000 0.9579000000
H 0.9289588892 0.0000000000 -0.2336831018
}

set dynamic_level 1
set basis cc-pV(D+d)Z

optimize("wB97X-V")
frequencies("wB97X-V")
--------------------------------------------------------------------------

    Molecular point group: c2v
  Charge       = 0
  Multiplicity = 1
  Basis Set: CC-PV(D+D)Z
    Blend: CC-PV(D+D)Z
  Basis Set: (CC-PV(D+D)Z AUX)
    Blend: CC-PVDZ-JKFIT
  @DF-RKS Final Energy:   -76.39175135296820
    Total Energy =                        -76.3917513529681997
    Molecular point group: c2v
  Basis Set: CC-PV(D+D)Z
    Blend: CC-PV(D+D)Z
  Basis Set: (CC-PV(D+D)Z AUX)
    Blend: CC-PVDZ-JKFIT
  @DF-RKS Final Energy:   -76.39179549449730
    Total Energy =                        -76.3917954944972877
  Basis Set: CC-PV(D+D)Z
    Blend: CC-PV(D+D)Z
  Basis Set: (CC-PV(D+D)Z AUX)
    Blend: CC-PVDZ-JKFIT
  @DF-RKS Final Energy:   -76.39170053699345
    Total Energy =                        -76.3917005369934543
  Basis Set: CC-PV(D+D)Z
    Blend: CC-PV(D+D)Z
  Basis Set: (CC-PV(D+D)Z AUX)
    Blend: CC-PVDZ-JKFIT
  @DF-RKS Final Energy:   -76.39170679437434
    Total Energy =                        -76.3917067943743433
  @DF-RKS Final Energy:   -76.39178548012406
    Total Energy =                        -76.3917854801240566
  @DF-RKS Final Energy:   -76.39191765517737
    Total Energy =                        -76.3919176551773802
  @DF-RKS Final Energy:   -76.39192055310747
    Total Energy =                        -76.3919205531074681
  @DF-RKS Final Energy:   -76.39190822806634
    Total Energy =                        -76.3919082280663559
  @DF-RKS Final Energy:   -76.39191070950676
    Total Energy =                        -76.3919107095067602
  @DF-RKS Final Energy:   -76.39191466768499
    Total Energy =                        -76.3919146676849863
  @DF-RKS Final Energy:   -76.39192138907741
    Total Energy =                        -76.3919213890773818
  @DF-RKS Final Energy:   -76.39191817892672
    Total Energy =                        -76.3919181789267014
  @DF-RKS Final Energy:   -76.39191806330214
    Total Energy =                        -76.3919180633021426
  @DF-RKS Final Energy:   -76.39191584361845
    Total Energy =                        -76.3919158436184347
  @DF-RKS Final Energy:   -76.39191705871288
    Total Energy =                        -76.3919170587128491
  **** Optimization is complete! (in 3 steps) ****
    Final optimized geometry and variables:
  @DF-RKS Final Energy:   -76.39192138907738
    Total Energy =                        -76.3919213890773818
  @DF-RKS Final Energy:   -76.39191817892670
    Total Energy =                        -76.3919181789267157
  @DF-RKS Final Energy:   -76.39191806330217
    Total Energy =                        -76.3919180633021568
  @DF-RKS Final Energy:   -76.39191584361839
    Total Energy =                        -76.3919158436183920
  @DF-RKS Final Energy:   -76.39191705871285
    Total Energy =                        -76.3919170587128491
  @DF-RKS Final Energy:   -76.39192138907734
    Total Energy =                        -76.3919213890773392
  @DF-RKS Final Energy:   -76.39191817892677
    Total Energy =                        -76.3919181789267725
  @DF-RKS Final Energy:   -76.39191806330219
    Total Energy =                        -76.3919180633021853
  @DF-RKS Final Energy:   -76.39191584361839
    Total Energy =                        -76.3919158436183920
  Basis Set: CC-PV(D+D)Z
    Blend: CC-PV(D+D)Z
  Basis Set: (CC-PV(D+D)Z AUX)
    Blend: CC-PVDZ-JKFIT
  @DF-RKS Final Energy:   -76.39191705871285
    Total Energy =                        -76.3919170587128349
  Basis Set: CC-PV(D+D)Z
    Blend: CC-PV(D+D)Z
  Basis Set: (CC-PV(D+D)Z AUX)
    Blend: CC-PVDZ-JKFIT
  @DF-RKS Final Energy:   -76.39191904995592
    Total Energy =                        -76.3919190499559022
  Multiplicity = 1
  Basis Set: CC-PV(D+D)Z
    Blend: CC-PV(D+D)Z
  Basis Set: (CC-PV(D+D)Z AUX)
    Blend: CC-PVDZ-JKFIT
  @DF-RKS Final Energy:   -76.39191796771726
    Total Energy =                        -76.3919179677172622
    Molecular point group: cs

    Geometry (in Angstrom), charge = 0, multiplicity = 1:

       Center              X                  Y                   Z               Mass
    ------------   -----------------  -----------------  -----------------  -----------------
         O            0.000000000000    -0.000176794650    -0.067534203933    15.994914619570
         H            0.000000000000     0.756521590175     0.537029544137     1.007825032230
         H            0.000000000000    -0.753715730787     0.534787280479     1.007825032230

  Charge       = 0
  Multiplicity = 1
  Basis Set: CC-PV(D+D)Z
    Blend: CC-PV(D+D)Z
  Basis Set: (CC-PV(D+D)Z AUX)
    Blend: CC-PVDZ-JKFIT

    Orbital Energies [Eh]
    ---------------------

    Doubly Occupied:

       1Ap   -19.209437     2Ap    -1.119067     3Ap    -0.616354
       4Ap    -0.477799     1App   -0.398026

  @DF-RKS Final Energy:   -76.39191411937534

   => Energetics <=

    Nuclear Repulsion Energy =              9.1096791125252565
    One-Electron Energy =                -123.0060705355853372
    Two-Electron Energy =                  44.0097940362034308
    DFT Exchange-Correlation Energy =      -6.5479831433014404
    Empirical Dispersion Energy =           0.0000000000000000
    VV10 Nonlocal Energy =                  0.0426664107827503
    Total Energy =                        -76.3919141193753433

  Dipole Moment: [D]
     X:     0.0000      Y:     0.0022      Z:     1.9615     Total:     1.9615

  Vibration                       7                   8                   9
  Freq [cm^-1]                1665.5677           3817.4397           3920.1941
  Irrep                           A1                  A1                  B2
  Reduced mass [u]              1.0815              1.0463              1.0801
  Force const [mDyne/A]         1.7677              8.9833              9.7798

  ==> Thermochemistry Components <==

  Entropy, S
    Electronic S            0.000 [cal/(mol K)]        0.000 [J/(mol K)]       0.00000000 [mEh/K] (multiplicity = 1)
    Translational S        34.608 [cal/(mol K)]      144.801 [J/(mol K)]       0.05515177 [mEh/K] (mol. weight = 18.0106 [u], P = 101325.00 [Pa])
    Rotational S           10.517 [cal/(mol K)]       44.005 [J/(mol K)]       0.01676050 [mEh/K] (symmetry no. = 2)
    Vibrational S           0.006 [cal/(mol K)]        0.024 [J/(mol K)]       0.00000925 [mEh/K]
  Total S                  45.131 [cal/(mol K)]      188.830 [J/(mol K)]       0.07192153 [mEh/K]
  Correction S              0.000 [cal/(mol K)]        0.000 [J/(mol K)]       0.00000000 [mEh/K]

  Constant volume heat capacity, Cv
    Electronic Cv           0.000 [cal/(mol K)]        0.000 [J/(mol K)]       0.00000000 [mEh/K]
    Translational Cv        2.981 [cal/(mol K)]       12.472 [J/(mol K)]       0.00475022 [mEh/K]
    Rotational Cv           2.981 [cal/(mol K)]       12.472 [J/(mol K)]       0.00475022 [mEh/K]
    Vibrational Cv          0.042 [cal/(mol K)]        0.174 [J/(mol K)]       0.00006616 [mEh/K]
  Total Cv                  6.003 [cal/(mol K)]       25.117 [J/(mol K)]       0.00956659 [mEh/K]
  Correction Cv             0.000 [cal/(mol K)]        0.000 [J/(mol K)]       0.00000000 [mEh/K]

  Constant pressure heat capacity, Cp
    Electronic Cp           0.000 [cal/(mol K)]        0.000 [J/(mol K)]       0.00000000 [mEh/K]
    Translational Cp        4.968 [cal/(mol K)]       20.786 [J/(mol K)]       0.00791703 [mEh/K]
    Rotational Cp           2.981 [cal/(mol K)]       12.472 [J/(mol K)]       0.00475022 [mEh/K]
    Vibrational Cp          0.042 [cal/(mol K)]        0.174 [J/(mol K)]       0.00006616 [mEh/K]
  Total Cp                  7.990 [cal/(mol K)]       33.432 [J/(mol K)]       0.01273341 [mEh/K]
  Correction Cp             0.000 [cal/(mol K)]        0.000 [J/(mol K)]       0.00000000 [mEh/K]

  ==> Thermochemistry Energy Analysis <==

  Raw electronic energy, E0
  Total E0, Electronic energy at well bottom at 0 [K]                  -76.39192139 [Eh]

  Zero-point energy, ZPE_vib = Sum_i nu_i / 2
    Electronic ZPE          0.000 [kcal/mol]        0.000 [kJ/mol]       0.00000000 [Eh]
    Translational ZPE       0.000 [kcal/mol]        0.000 [kJ/mol]       0.00000000 [Eh]
    Rotational ZPE          0.000 [kcal/mol]        0.000 [kJ/mol]       0.00000000 [Eh]
    Vibrational ZPE        13.443 [kcal/mol]       56.244 [kJ/mol]       0.02142207 [Eh]        4701.601 [cm^-1]
  Correction ZPE           13.443 [kcal/mol]       56.244 [kJ/mol]       0.02142207 [Eh]        4701.601 [cm^-1]
  Total ZPE, Electronic energy at 0 [K]                                -76.37049932 [Eh]

  Thermal Energy, E (includes ZPE)
    Electronic E            0.000 [kcal/mol]        0.000 [kJ/mol]       0.00000000 [Eh]
    Translational E         0.889 [kcal/mol]        3.718 [kJ/mol]       0.00141628 [Eh]
    Rotational E            0.889 [kcal/mol]        3.718 [kJ/mol]       0.00141628 [Eh]
    Vibrational E          13.444 [kcal/mol]       56.250 [kJ/mol]       0.02142452 [Eh]
  Correction E             15.222 [kcal/mol]       63.687 [kJ/mol]       0.02425708 [Eh]
  Total E, Electronic energy at  298.15 [K]                            -76.36766431 [Eh]

  Enthalpy, H_trans = E_trans + k_B * T
    Electronic H            0.000 [kcal/mol]        0.000 [kJ/mol]       0.00000000 [Eh]
    Translational H         1.481 [kcal/mol]        6.197 [kJ/mol]       0.00236046 [Eh]
    Rotational H            0.889 [kcal/mol]        3.718 [kJ/mol]       0.00141628 [Eh]
    Vibrational H          13.444 [kcal/mol]       56.250 [kJ/mol]       0.02142452 [Eh]
  Correction H             15.814 [kcal/mol]       66.166 [kJ/mol]       0.02520126 [Eh]
  Total H, Enthalpy at  298.15 [K]                                     -76.36672013 [Eh]

  Gibbs free energy, G = H - T * S
    Electronic G            0.000 [kcal/mol]        0.000 [kJ/mol]       0.00000000 [Eh]
    Translational G        -8.837 [kcal/mol]      -36.975 [kJ/mol]      -0.01408304 [Eh]
    Rotational G           -2.247 [kcal/mol]       -9.402 [kJ/mol]      -0.00358087 [Eh]
    Vibrational G          13.442 [kcal/mol]       56.243 [kJ/mol]       0.02142176 [Eh]
  Correction G              2.358 [kcal/mol]        9.866 [kJ/mol]       0.00375786 [Eh]
  Total G, Free enthalpy at  298.15 [K]                                -76.38816353 [Eh]

*** Psi4 exiting successfully. Buy a developer a beer!
