                               Psi4 1.3.2 release

  ==> Input File <==

--------------------------------------------------------------------------
memory 144 GB

molecule {
0 1
S 0.0000000000 0.0000000000 0.0000000000
H 0.0000000000 0.0000000000 1.3377284100
H 1.3366219004 0.0000000000 -0.0543984776
}

set dynamic_level 1
set basis cc-pV(D+d)Z

optimize("wB97X-V")
frequencies("wB97X-V")
--------------------------------------------------------------------------

    Molecular point group: c2v
  Charge       = 0
  Multiplicity = 1
  Basis Set: CC-PV(D+D)Z
    Blend: CC-PV(D+D)Z
  Basis Set: (CC-PV(D+D)Z AUX)
    Blend: CC-PVDZ-JKFIT
  @DF-RKS Final Energy:  -399.33107215415401
    Total Energy =                       -399.3310721541539579
    Molecular point group: c2v
  Basis Set: CC-PV(D+D)Z
    Blend: CC-PV(D+D)Z
  Basis Set: (CC-PV(D+D)Z AUX)
    Blend: CC-PVDZ-JKFIT
  @DF-RKS Final Energy:  -399.33109193594430
    Total Energy =                       -399.3310919359443574
  Basis Set: CC-PV(D+D)Z
    Blend: CC-PV(D+D)Z
  Basis Set: (CC-PV(D+D)Z AUX)
    Blend: CC-PVDZ-JKFIT
  @DF-RKS Final Energy:  -399.33104805642984
    Total Energy =                       -399.3310480564298359
  Basis Set: CC-PV(D+D)Z
    Blend: CC-PV(D+D)Z
  Basis Set: (CC-PV(D+D)Z AUX)
    Blend: CC-PVDZ-JKFIT
  @DF-RKS Final Energy:  -399.33104468425012
    Total Energy =                       -399.3310446842501165
  @DF-RKS Final Energy:  -399.33109501081901
    Total Energy =                       -399.3310950108190127
  @DF-RKS Final Energy:  -399.33114664134149
    Total Energy =                       -399.3311466413414337
  @DF-RKS Final Energy:  -399.33114309222952
    Total Energy =                       -399.3311430922295244
  @DF-RKS Final Energy:  -399.33114603583351
    Total Energy =                       -399.3311460358335125
  @DF-RKS Final Energy:  -399.33114728249075
    Total Energy =                       -399.3311472824908037
  @DF-RKS Final Energy:  -399.33114155471333
    Total Energy =                       -399.3311415547133265
  @DF-RKS Final Energy:  -399.33114759860126
    Total Energy =                       -399.3311475986012624
  @DF-RKS Final Energy:  -399.33114541130772
    Total Energy =                       -399.3311454113077161
  @DF-RKS Final Energy:  -399.33114561543243
    Total Energy =                       -399.3311456154324901
  @DF-RKS Final Energy:  -399.33114539394495
    Total Energy =                       -399.3311453939449507
  @DF-RKS Final Energy:  -399.33114534608370
    Total Energy =                       -399.3311453460836447
  **** Optimization is complete! (in 3 steps) ****
    Final optimized geometry and variables:
  @DF-RKS Final Energy:  -399.33114759860098
    Total Energy =                       -399.3311475986009782
  @DF-RKS Final Energy:  -399.33114541130783
    Total Energy =                       -399.3311454113078867
  @DF-RKS Final Energy:  -399.33114561543238
    Total Energy =                       -399.3311456154323764
  @DF-RKS Final Energy:  -399.33114539394518
    Total Energy =                       -399.3311453939451781
  @DF-RKS Final Energy:  -399.33114534608353
    Total Energy =                       -399.3311453460835310
  @DF-RKS Final Energy:  -399.33114759860098
    Total Energy =                       -399.3311475986010350
  @DF-RKS Final Energy:  -399.33114541130760
    Total Energy =                       -399.3311454113076024
  @DF-RKS Final Energy:  -399.33114561543249
    Total Energy =                       -399.3311456154325469
  @DF-RKS Final Energy:  -399.33114539394501
    Total Energy =                       -399.3311453939450644
  Basis Set: CC-PV(D+D)Z
    Blend: CC-PV(D+D)Z
  Basis Set: (CC-PV(D+D)Z AUX)
    Blend: CC-PVDZ-JKFIT
  @DF-RKS Final Energy:  -399.33114534608347
    Total Energy =                       -399.3311453460834741
  Basis Set: CC-PV(D+D)Z
    Blend: CC-PV(D+D)Z
  Basis Set: (CC-PV(D+D)Z AUX)
    Blend: CC-PVDZ-JKFIT
  @DF-RKS Final Energy:  -399.33114627818577
    Total Energy =                       -399.3311462781858268
  Multiplicity = 1
  Basis Set: CC-PV(D+D)Z
    Blend: CC-PV(D+D)Z
  Basis Set: (CC-PV(D+D)Z AUX)
    Blend: CC-PVDZ-JKFIT
  @DF-RKS Final Energy:  -399.33114612342308
    Total Energy =                       -399.3311461234230819
    Molecular point group: cs

    Geometry (in Angstrom), charge = 0, multiplicity = 1:

       Center              X                  Y                   Z               Mass
    ------------   -----------------  -----------------  -----------------  -----------------
         S            0.000000000000    -0.000083500418    -0.055216777582    31.972071174400
         H            0.000000000000     0.973696563574     0.877112070864     1.007825032230
         H            0.000000000000    -0.971047610410     0.874575659064     1.007825032230

  Charge       = 0
  Multiplicity = 1
  Basis Set: CC-PV(D+D)Z
    Blend: CC-PV(D+D)Z
  Basis Set: (CC-PV(D+D)Z AUX)
    Blend: CC-PVDZ-JKFIT

    Orbital Energies [Eh]
    ---------------------

    Doubly Occupied:

       1Ap   -88.878790     2Ap    -8.045623     3Ap    -6.002452
       4Ap    -5.998951     1App   -5.991605     5Ap    -0.866025
       6Ap    -0.545640     7Ap    -0.465059     2App   -0.358541

  @DF-RKS Final Energy:  -399.33114399561470

   => Energetics <=

    Nuclear Repulsion Energy =             12.8505574030156549
    One-Electron Energy =                -576.6484532438909127
    Two-Electron Energy =                 184.1365456206505371
    DFT Exchange-Correlation Energy =     -19.7456231157913997
    Empirical Dispersion Energy =           0.0000000000000000
    VV10 Nonlocal Energy =                  0.0758293404014525
    Total Energy =                       -399.3311439956146955

  Dipole Moment: [D]
     X:     0.0000      Y:    -0.0004      Z:     1.2672     Total:     1.2672

  Vibration                       7                   8                   9
  Freq [cm^-1]                1213.9714           2759.8188           2765.0585
  Irrep                           A1                  B2                  A1
  Reduced mass [u]              1.0391              1.0399              1.0361
  Force const [mDyne/A]         0.9023              4.6666              4.6673

  ==> Thermochemistry Components <==

  Entropy, S
    Electronic S            0.000 [cal/(mol K)]        0.000 [J/(mol K)]       0.00000000 [mEh/K] (multiplicity = 1)
    Translational S        36.501 [cal/(mol K)]      152.721 [J/(mol K)]       0.05816835 [mEh/K] (mol. weight = 33.9877 [u], P = 101325.00 [Pa])
    Rotational S           12.613 [cal/(mol K)]       52.772 [J/(mol K)]       0.02009989 [mEh/K] (symmetry no. = 2)
    Vibrational S           0.039 [cal/(mol K)]        0.164 [J/(mol K)]       0.00006235 [mEh/K]
  Total S                  49.153 [cal/(mol K)]      205.657 [J/(mol K)]       0.07833059 [mEh/K]
  Correction S              0.000 [cal/(mol K)]        0.000 [J/(mol K)]       0.00000000 [mEh/K]

  Constant volume heat capacity, Cv
    Electronic Cv           0.000 [cal/(mol K)]        0.000 [J/(mol K)]       0.00000000 [mEh/K]
    Translational Cv        2.981 [cal/(mol K)]       12.472 [J/(mol K)]       0.00475022 [mEh/K]
    Rotational Cv           2.981 [cal/(mol K)]       12.472 [J/(mol K)]       0.00475022 [mEh/K]
    Vibrational Cv          0.197 [cal/(mol K)]        0.824 [J/(mol K)]       0.00031403 [mEh/K]
  Total Cv                  6.159 [cal/(mol K)]       25.768 [J/(mol K)]       0.00981446 [mEh/K]
  Correction Cv             0.000 [cal/(mol K)]        0.000 [J/(mol K)]       0.00000000 [mEh/K]

  Constant pressure heat capacity, Cp
    Electronic Cp           0.000 [cal/(mol K)]        0.000 [J/(mol K)]       0.00000000 [mEh/K]
    Translational Cp        4.968 [cal/(mol K)]       20.786 [J/(mol K)]       0.00791703 [mEh/K]
    Rotational Cp           2.981 [cal/(mol K)]       12.472 [J/(mol K)]       0.00475022 [mEh/K]
    Vibrational Cp          0.197 [cal/(mol K)]        0.824 [J/(mol K)]       0.00031403 [mEh/K]
  Total Cp                  8.146 [cal/(mol K)]       34.082 [J/(mol K)]       0.01298127 [mEh/K]
  Correction Cp             0.000 [cal/(mol K)]        0.000 [J/(mol K)]       0.00000000 [mEh/K]

  ==> Thermochemistry Energy Analysis <==

  Raw electronic energy, E0
  Total E0, Electronic energy at well bottom at 0 [K]                 -399.33114760 [Eh]

  Zero-point energy, ZPE_vib = Sum_i nu_i / 2
    Electronic ZPE          0.000 [kcal/mol]        0.000 [kJ/mol]       0.00000000 [Eh]
    Translational ZPE       0.000 [kcal/mol]        0.000 [kJ/mol]       0.00000000 [Eh]
    Rotational ZPE          0.000 [kcal/mol]        0.000 [kJ/mol]       0.00000000 [Eh]
    Vibrational ZPE         9.634 [kcal/mol]       40.307 [kJ/mol]       0.01535223 [Eh]        3369.424 [cm^-1]
  Correction ZPE            9.634 [kcal/mol]       40.307 [kJ/mol]       0.01535223 [Eh]        3369.424 [cm^-1]
  Total ZPE, Electronic energy at 0 [K]                               -399.31579537 [Eh]

  Thermal Energy, E (includes ZPE)
    Electronic E            0.000 [kcal/mol]        0.000 [kJ/mol]       0.00000000 [Eh]
    Translational E         0.889 [kcal/mol]        3.718 [kJ/mol]       0.00141628 [Eh]
    Rotational E            0.889 [kcal/mol]        3.718 [kJ/mol]       0.00141628 [Eh]
    Vibrational E           9.644 [kcal/mol]       40.349 [kJ/mol]       0.01536811 [Eh]
  Correction E             11.421 [kcal/mol]       47.786 [kJ/mol]       0.01820067 [Eh]
  Total E, Electronic energy at  298.15 [K]                           -399.31294693 [Eh]

  Enthalpy, H_trans = E_trans + k_B * T
    Electronic H            0.000 [kcal/mol]        0.000 [kJ/mol]       0.00000000 [Eh]
    Translational H         1.481 [kcal/mol]        6.197 [kJ/mol]       0.00236046 [Eh]
    Rotational H            0.889 [kcal/mol]        3.718 [kJ/mol]       0.00141628 [Eh]
    Vibrational H           9.644 [kcal/mol]       40.349 [kJ/mol]       0.01536811 [Eh]
  Correction H             12.014 [kcal/mol]       50.265 [kJ/mol]       0.01914485 [Eh]
  Total H, Enthalpy at  298.15 [K]                                    -399.31200275 [Eh]

  Gibbs free energy, G = H - T * S
    Electronic G            0.000 [kcal/mol]        0.000 [kJ/mol]       0.00000000 [Eh]
    Translational G        -9.402 [kcal/mol]      -39.336 [kJ/mol]      -0.01498243 [Eh]
    Rotational G           -2.872 [kcal/mol]      -12.016 [kJ/mol]      -0.00457651 [Eh]
    Vibrational G           9.632 [kcal/mol]       40.300 [kJ/mol]       0.01534952 [Eh]
  Correction G             -2.641 [kcal/mol]      -11.052 [kJ/mol]      -0.00420942 [Eh]
  Total G, Free enthalpy at  298.15 [K]                               -399.33535702 [Eh]

*** Psi4 exiting successfully. Buy a developer a beer!
