                               Psi4 1.3.2 release

  ==> Input File <==

--------------------------------------------------------------------------
memory 144 GB

molecule {
0 1
Cl 0.0000000000 0.0000000000 0.0000000000
H 0.0000000000 0.0000000000 1.2756042300
}

set dynamic_level 1
set basis cc-pV(D+d)Z

optimize("wB97X-V")
frequencies("wB97X-V")
--------------------------------------------------------------------------

    Molecular point group: c2v
  Charge       = 0
  Multiplicity = 1
  Basis Set: CC-PV(D+D)Z
    Blend: CC-PV(D+D)Z
  Basis Set: (CC-PV(D+D)Z AUX)
    Blend: CC-PVDZ-JKFIT
  @DF-RKS Final Energy:  -460.73821288669092
    Total Energy =                       -460.7382128866908602
    Molecular point group: c2v
  Basis Set: CC-PV(D+D)Z
    Blend: CC-PV(D+D)Z
  Basis Set: (CC-PV(D+D)Z AUX)
    Blend: CC-PVDZ-JKFIT
  @DF-RKS Final Energy:  -460.73823910446373
    Total Energy =                       -460.7382391044637870
  Basis Set: CC-PV(D+D)Z
    Blend: CC-PV(D+D)Z
  Basis Set: (CC-PV(D+D)Z AUX)
    Blend: CC-PVDZ-JKFIT
  @DF-RKS Final Energy:  -460.73817748455053
    Total Energy =                       -460.7381774845505333
  Basis Set: CC-PV(D+D)Z
    Blend: CC-PV(D+D)Z
  Basis Set: (CC-PV(D+D)Z AUX)
    Blend: CC-PVDZ-JKFIT
  @DF-RKS Final Energy:  -460.73826495690821
    Total Energy =                       -460.7382649569081536
  @DF-RKS Final Energy:  -460.73825803240351
    Total Energy =                       -460.7382580324035075
  @DF-RKS Final Energy:  -460.73826317889916
    Total Energy =                       -460.7382631788991034
  @DF-RKS Final Energy:  -460.73826534257432
    Total Energy =                       -460.7382653425743229
  @DF-RKS Final Energy:  -460.73826090965855
    Total Energy =                       -460.7382609096585497
  @DF-RKS Final Energy:  -460.73826103669387
    Total Energy =                       -460.7382610366938138
  **** Optimization is complete! (in 3 steps) ****
    Final optimized geometry and variables:
  @DF-RKS Final Energy:  -460.73826534257449
    Total Energy =                       -460.7382653425744934
  @DF-RKS Final Energy:  -460.73826090965838
    Total Energy =                       -460.7382609096583792
  Basis Set: CC-PV(D+D)Z
    Blend: CC-PV(D+D)Z
  Basis Set: (CC-PV(D+D)Z AUX)
    Blend: CC-PVDZ-JKFIT
  @DF-RKS Final Energy:  -460.73826103669370
    Total Energy =                       -460.7382610366937001
  Basis Set: CC-PV(D+D)Z
    Blend: CC-PV(D+D)Z
  Basis Set: (CC-PV(D+D)Z AUX)
    Blend: CC-PVDZ-JKFIT
  @DF-RKS Final Energy:  -460.73826534257449
    Total Energy =                       -460.7382653425744934
  Multiplicity = 1
  Basis Set: CC-PV(D+D)Z
    Blend: CC-PV(D+D)Z
  Basis Set: (CC-PV(D+D)Z AUX)
    Blend: CC-PVDZ-JKFIT
  @DF-RKS Final Energy:  -460.73826090965821
    Total Energy =                       -460.7382609096582087
    Molecular point group: c2v

    Geometry (in Angstrom), charge = 0, multiplicity = 1:

       Center              X                  Y                   Z               Mass
    ------------   -----------------  -----------------  -----------------  -----------------
         CL           0.000000000000     0.000000000000    -0.035917020329    34.968852682000
         H            0.000000000000     0.000000000000     1.246225239990     1.007825032230

  Charge       = 0
  Multiplicity = 1
  Basis Set: CC-PV(D+D)Z
    Blend: CC-PV(D+D)Z
  Basis Set: (CC-PV(D+D)Z AUX)
    Blend: CC-PVDZ-JKFIT

    Orbital Energies [Eh]
    ---------------------

    Doubly Occupied:

       1A1  -101.535729     2A1    -9.563817     3A1    -7.319518
       1B2    -7.309204     1B1    -7.309204     4A1    -0.968340
       5A1    -0.574264     2B2    -0.432420     2B1    -0.432420

  @DF-RKS Final Energy:  -460.73826103669364

   => Energetics <=

    Nuclear Repulsion Energy =              7.0163919089220350
    One-Electron Energy =                -649.9500059344377405
    Two-Electron Energy =                 203.6723512428451954
    DFT Exchange-Correlation Energy =     -21.5534650215535777
    Empirical Dispersion Energy =           0.0000000000000000
    VV10 Nonlocal Energy =                  0.0764667675304315
    Total Energy =                       -460.7382610366936433

  Dipole Moment: [D]
     X:     0.0000      Y:     0.0000      Z:     1.3501     Total:     1.3501

  Vibration                       6
  Freq [cm^-1]                3039.2058
  Irrep                           A1
  Reduced mass [u]              1.0360
  Force const [mDyne/A]         5.6381

  ==> Thermochemistry Components <==

  Entropy, S
    Electronic S            0.000 [cal/(mol K)]        0.000 [J/(mol K)]       0.00000000 [mEh/K] (multiplicity = 1)
    Translational S        36.671 [cal/(mol K)]      153.430 [J/(mol K)]       0.05843851 [mEh/K] (mol. weight = 35.9767 [u], P = 101325.00 [Pa])
    Rotational S            7.928 [cal/(mol K)]       33.171 [J/(mol K)]       0.01263434 [mEh/K] (symmetry no. = 1)
    Vibrational S           0.000 [cal/(mol K)]        0.000 [J/(mol K)]       0.00000002 [mEh/K]
  Total S                  44.599 [cal/(mol K)]      186.602 [J/(mol K)]       0.07107287 [mEh/K]
  Correction S              0.000 [cal/(mol K)]        0.000 [J/(mol K)]       0.00000000 [mEh/K]

  Constant volume heat capacity, Cv
    Electronic Cv           0.000 [cal/(mol K)]        0.000 [J/(mol K)]       0.00000000 [mEh/K]
    Translational Cv        2.981 [cal/(mol K)]       12.472 [J/(mol K)]       0.00475022 [mEh/K]
    Rotational Cv           1.987 [cal/(mol K)]        8.314 [J/(mol K)]       0.00316681 [mEh/K]
    Vibrational Cv          0.000 [cal/(mol K)]        0.001 [J/(mol K)]       0.00000029 [mEh/K]
  Total Cv                  4.968 [cal/(mol K)]       20.787 [J/(mol K)]       0.00791732 [mEh/K]
  Correction Cv             0.000 [cal/(mol K)]        0.000 [J/(mol K)]       0.00000000 [mEh/K]

  Constant pressure heat capacity, Cp
    Electronic Cp           0.000 [cal/(mol K)]        0.000 [J/(mol K)]       0.00000000 [mEh/K]
    Translational Cp        4.968 [cal/(mol K)]       20.786 [J/(mol K)]       0.00791703 [mEh/K]
    Rotational Cp           1.987 [cal/(mol K)]        8.314 [J/(mol K)]       0.00316681 [mEh/K]
    Vibrational Cp          0.000 [cal/(mol K)]        0.001 [J/(mol K)]       0.00000029 [mEh/K]
  Total Cp                  6.955 [cal/(mol K)]       29.101 [J/(mol K)]       0.01108413 [mEh/K]
  Correction Cp             0.000 [cal/(mol K)]        0.000 [J/(mol K)]       0.00000000 [mEh/K]

  ==> Thermochemistry Energy Analysis <==

  Raw electronic energy, E0
  Total E0, Electronic energy at well bottom at 0 [K]                 -460.73826534 [Eh]

  Zero-point energy, ZPE_vib = Sum_i nu_i / 2
    Electronic ZPE          0.000 [kcal/mol]        0.000 [kJ/mol]       0.00000000 [Eh]
    Translational ZPE       0.000 [kcal/mol]        0.000 [kJ/mol]       0.00000000 [Eh]
    Rotational ZPE          0.000 [kcal/mol]        0.000 [kJ/mol]       0.00000000 [Eh]
    Vibrational ZPE         4.345 [kcal/mol]       18.178 [kJ/mol]       0.00692382 [Eh]        1519.603 [cm^-1]
  Correction ZPE            4.345 [kcal/mol]       18.178 [kJ/mol]       0.00692382 [Eh]        1519.603 [cm^-1]
  Total ZPE, Electronic energy at 0 [K]                               -460.73134152 [Eh]

  Thermal Energy, E (includes ZPE)
    Electronic E            0.000 [kcal/mol]        0.000 [kJ/mol]       0.00000000 [Eh]
    Translational E         0.889 [kcal/mol]        3.718 [kJ/mol]       0.00141628 [Eh]
    Rotational E            0.592 [kcal/mol]        2.479 [kJ/mol]       0.00094418 [Eh]
    Vibrational E           4.345 [kcal/mol]       18.179 [kJ/mol]       0.00692383 [Eh]
  Correction E              5.826 [kcal/mol]       24.376 [kJ/mol]       0.00928429 [Eh]
  Total E, Electronic energy at  298.15 [K]                           -460.72898106 [Eh]

  Enthalpy, H_trans = E_trans + k_B * T
    Electronic H            0.000 [kcal/mol]        0.000 [kJ/mol]       0.00000000 [Eh]
    Translational H         1.481 [kcal/mol]        6.197 [kJ/mol]       0.00236046 [Eh]
    Rotational H            0.592 [kcal/mol]        2.479 [kJ/mol]       0.00094418 [Eh]
    Vibrational H           4.345 [kcal/mol]       18.179 [kJ/mol]       0.00692383 [Eh]
  Correction H              6.418 [kcal/mol]       26.855 [kJ/mol]       0.01022847 [Eh]
  Total H, Enthalpy at  298.15 [K]                                    -460.72803687 [Eh]

  Gibbs free energy, G = H - T * S
    Electronic G            0.000 [kcal/mol]        0.000 [kJ/mol]       0.00000000 [Eh]
    Translational G        -9.452 [kcal/mol]      -39.548 [kJ/mol]      -0.01506298 [Eh]
    Rotational G           -1.771 [kcal/mol]       -7.411 [kJ/mol]      -0.00282274 [Eh]
    Vibrational G           4.345 [kcal/mol]       18.178 [kJ/mol]       0.00692382 [Eh]
  Correction G             -6.879 [kcal/mol]      -28.780 [kJ/mol]      -0.01096190 [Eh]
  Total G, Free enthalpy at  298.15 [K]                               -460.74922725 [Eh]

*** Psi4 exiting successfully. Buy a developer a beer!
