                               Psi4 1.3.2 release

  ==> Input File <==

--------------------------------------------------------------------------
memory 144 GB

molecule {
0 1
H 0.0000000000 0.0000000000 0.0000000000
C 0.0000000000 0.0000000000 1.0668000000
N 0.0000000000 0.0000000000 2.2232000000
}

set dynamic_level 1
set basis cc-pV(D+d)Z

optimize("wB97X-V")
frequencies("wB97X-V")
--------------------------------------------------------------------------

    Molecular point group: c2v
  Charge       = 0
  Multiplicity = 1
  Basis Set: CC-PV(D+D)Z
    Blend: CC-PV(D+D)Z
  Basis Set: (CC-PV(D+D)Z AUX)
    Blend: CC-PVDZ-JKFIT
  @DF-RKS Final Energy:   -93.39936391937245
    Total Energy =                        -93.3993639193724619
    Molecular point group: c2v
  Basis Set: CC-PV(D+D)Z
    Blend: CC-PV(D+D)Z
  Basis Set: (CC-PV(D+D)Z AUX)
    Blend: CC-PVDZ-JKFIT
  @DF-RKS Final Energy:   -93.39940628940995
    Total Energy =                        -93.3994062894099528
  Basis Set: CC-PV(D+D)Z
    Blend: CC-PV(D+D)Z
  Basis Set: (CC-PV(D+D)Z AUX)
    Blend: CC-PVDZ-JKFIT
  @DF-RKS Final Energy:   -93.39931026364798
    Total Energy =                        -93.3993102636479762
  Basis Set: CC-PV(D+D)Z
    Blend: CC-PV(D+D)Z
  Basis Set: (CC-PV(D+D)Z AUX)
    Blend: CC-PVDZ-JKFIT
  @DF-RKS Final Energy:   -93.39934936051925
    Total Energy =                        -93.3993493605192526
  @DF-RKS Final Energy:   -93.39937273942454
    Total Energy =                        -93.3993727394245354
  @DF-RKS Final Energy:   -93.39946659590973
    Total Energy =                        -93.3994665959097290
  @DF-RKS Final Energy:   -93.39945551208837
    Total Energy =                        -93.3994555120883660
  @DF-RKS Final Energy:   -93.39946720473810
    Total Energy =                        -93.3994672047381016
  @DF-RKS Final Energy:   -93.39946572510569
    Total Energy =                        -93.3994657251056850
  @DF-RKS Final Energy:   -93.39946175265491
    Total Energy =                        -93.3994617526549149
  @DF-RKS Final Energy:   -93.39946827918185
    Total Energy =                        -93.3994682791818320
  @DF-RKS Final Energy:   -93.39946280593757
    Total Energy =                        -93.3994628059375742
  @DF-RKS Final Energy:   -93.39946319174392
    Total Energy =                        -93.3994631917439051
  @DF-RKS Final Energy:   -93.39946544814593
    Total Energy =                        -93.3994654481459321
  @DF-RKS Final Energy:   -93.39946539670053
    Total Energy =                        -93.3994653967005348
  **** Optimization is complete! (in 3 steps) ****
    Final optimized geometry and variables:
  @DF-RKS Final Energy:   -93.39946827918182
    Total Energy =                        -93.3994682791818036
  @DF-RKS Final Energy:   -93.39946280593760
    Total Energy =                        -93.3994628059376168
  @DF-RKS Final Energy:   -93.39946319174400
    Total Energy =                        -93.3994631917440046
  @DF-RKS Final Energy:   -93.39946544814595
    Total Energy =                        -93.3994654481459463
  @DF-RKS Final Energy:   -93.39946539670061
    Total Energy =                        -93.3994653967006059
  @DF-RKS Final Energy:   -93.39946827918195
    Total Energy =                        -93.3994682791819315
  @DF-RKS Final Energy:   -93.39946280593763
    Total Energy =                        -93.3994628059376311
  @DF-RKS Final Energy:   -93.39946319174405
    Total Energy =                        -93.3994631917440330
  @DF-RKS Final Energy:   -93.39946544814595
    Total Energy =                        -93.3994654481459605
  @DF-RKS Final Energy:   -93.39946539670059
    Total Energy =                        -93.3994653967005917
  Basis Set: CC-PV(D+D)Z
    Blend: CC-PV(D+D)Z
  Basis Set: (CC-PV(D+D)Z AUX)
    Blend: CC-PVDZ-JKFIT
  @DF-RKS Final Energy:   -93.39946266985446
    Total Energy =                        -93.3994626698544579
  Basis Set: CC-PV(D+D)Z
    Blend: CC-PV(D+D)Z
  Basis Set: (CC-PV(D+D)Z AUX)
    Blend: CC-PVDZ-JKFIT
  @DF-RKS Final Energy:   -93.39946230895227
    Total Energy =                        -93.3994623089522662
  Multiplicity = 1
  Basis Set: CC-PV(D+D)Z
    Blend: CC-PV(D+D)Z
  Basis Set: (CC-PV(D+D)Z AUX)
    Blend: CC-PVDZ-JKFIT
  @DF-RKS Final Energy:   -93.39946798518993
    Total Energy =                        -93.3994679851899292
    Molecular point group: cs

    Geometry (in Angstrom), charge = 0, multiplicity = 1:

       Center              X                  Y                   Z               Mass
    ------------   -----------------  -----------------  -----------------  -----------------
         H            0.000000000000    -0.002246474801    -1.637803465127     1.007825032230
         C            0.000000000000     0.000364688349    -0.559152160388    12.000000000000
         N            0.000000000000    -0.000150838784     0.597043567151    14.003074004430

  Charge       = 0
  Multiplicity = 1
  Basis Set: CC-PV(D+D)Z
    Blend: CC-PV(D+D)Z
  Basis Set: (CC-PV(D+D)Z AUX)
    Blend: CC-PVDZ-JKFIT

    Orbital Energies [Eh]
    ---------------------

    Doubly Occupied:

       1Ap   -14.447380     2Ap   -10.339309     3Ap    -1.050504
       4Ap    -0.718908     5Ap    -0.492153     1App   -0.465982
       6Ap    -0.465981

  @DF-RKS Final Energy:   -93.39946798531176

   => Energetics <=

    Nuclear Repulsion Energy =             23.8239366560638963
    One-Electron Energy =                -172.6172453908881437
    Two-Electron Energy =                  64.1164511510209394
    DFT Exchange-Correlation Energy =      -8.7810486463990927
    Empirical Dispersion Energy =           0.0000000000000000
    VV10 Nonlocal Energy =                  0.0584382448906335
    Total Energy =                        -93.3994679853117731

  Dipole Moment: [D]
     X:     0.0000      Y:    -0.0024      Z:    -2.8677     Total:     2.8677

  Vibration                       6                   7                   8
  Freq [cm^-1]                 788.1829            788.3463           2243.7812
  Irrep                           B2                  B1                  A1
  Reduced mass [u]              1.3457              1.3457              4.9749
  Force const [mDyne/A]         0.4925              0.4927             14.7569

  Vibration                       9
  Freq [cm^-1]                3488.1255
  Irrep                           A1
  Reduced mass [u]              1.1977
  Force const [mDyne/A]         8.5861

  ==> Thermochemistry Components <==

  Entropy, S
    Electronic S            0.000 [cal/(mol K)]        0.000 [J/(mol K)]       0.00000000 [mEh/K] (multiplicity = 1)
    Translational S        35.816 [cal/(mol K)]      149.856 [J/(mol K)]       0.05707695 [mEh/K] (mol. weight = 27.0109 [u], P = 101325.00 [Pa])
    Rotational S           11.817 [cal/(mol K)]       49.444 [J/(mol K)]       0.01883209 [mEh/K] (symmetry no. = 1)
    Vibrational S           0.435 [cal/(mol K)]        1.818 [J/(mol K)]       0.00069258 [mEh/K]
  Total S                  48.068 [cal/(mol K)]      201.118 [J/(mol K)]       0.07660161 [mEh/K]
  Correction S              0.000 [cal/(mol K)]        0.000 [J/(mol K)]       0.00000000 [mEh/K]

  Constant volume heat capacity, Cv
    Electronic Cv           0.000 [cal/(mol K)]        0.000 [J/(mol K)]       0.00000000 [mEh/K]
    Translational Cv        2.981 [cal/(mol K)]       12.472 [J/(mol K)]       0.00475022 [mEh/K]
    Rotational Cv           1.987 [cal/(mol K)]        8.314 [J/(mol K)]       0.00316681 [mEh/K]
    Vibrational Cv          1.345 [cal/(mol K)]        5.628 [J/(mol K)]       0.00214374 [mEh/K]
  Total Cv                  6.313 [cal/(mol K)]       26.415 [J/(mol K)]       0.01006077 [mEh/K]
  Correction Cv             0.000 [cal/(mol K)]        0.000 [J/(mol K)]       0.00000000 [mEh/K]

  Constant pressure heat capacity, Cp
    Electronic Cp           0.000 [cal/(mol K)]        0.000 [J/(mol K)]       0.00000000 [mEh/K]
    Translational Cp        4.968 [cal/(mol K)]       20.786 [J/(mol K)]       0.00791703 [mEh/K]
    Rotational Cp           1.987 [cal/(mol K)]        8.314 [J/(mol K)]       0.00316681 [mEh/K]
    Vibrational Cp          1.345 [cal/(mol K)]        5.628 [J/(mol K)]       0.00214374 [mEh/K]
  Total Cp                  8.300 [cal/(mol K)]       34.729 [J/(mol K)]       0.01322758 [mEh/K]
  Correction Cp             0.000 [cal/(mol K)]        0.000 [J/(mol K)]       0.00000000 [mEh/K]

  ==> Thermochemistry Energy Analysis <==

  Raw electronic energy, E0
  Total E0, Electronic energy at well bottom at 0 [K]                  -93.39946828 [Eh]

  Zero-point energy, ZPE_vib = Sum_i nu_i / 2
    Electronic ZPE          0.000 [kcal/mol]        0.000 [kJ/mol]       0.00000000 [Eh]
    Translational ZPE       0.000 [kcal/mol]        0.000 [kJ/mol]       0.00000000 [Eh]
    Rotational ZPE          0.000 [kcal/mol]        0.000 [kJ/mol]       0.00000000 [Eh]
    Vibrational ZPE        10.448 [kcal/mol]       43.714 [kJ/mol]       0.01664984 [Eh]        3654.218 [cm^-1]
  Correction ZPE           10.448 [kcal/mol]       43.714 [kJ/mol]       0.01664984 [Eh]        3654.218 [cm^-1]
  Total ZPE, Electronic energy at 0 [K]                                -93.38281844 [Eh]

  Thermal Energy, E (includes ZPE)
    Electronic E            0.000 [kcal/mol]        0.000 [kJ/mol]       0.00000000 [Eh]
    Translational E         0.889 [kcal/mol]        3.718 [kJ/mol]       0.00141628 [Eh]
    Rotational E            0.592 [kcal/mol]        2.479 [kJ/mol]       0.00094418 [Eh]
    Vibrational E          10.551 [kcal/mol]       44.145 [kJ/mol]       0.01681376 [Eh]
  Correction E             12.032 [kcal/mol]       50.342 [kJ/mol]       0.01917422 [Eh]
  Total E, Electronic energy at  298.15 [K]                            -93.38029406 [Eh]

  Enthalpy, H_trans = E_trans + k_B * T
    Electronic H            0.000 [kcal/mol]        0.000 [kJ/mol]       0.00000000 [Eh]
    Translational H         1.481 [kcal/mol]        6.197 [kJ/mol]       0.00236046 [Eh]
    Rotational H            0.592 [kcal/mol]        2.479 [kJ/mol]       0.00094418 [Eh]
    Vibrational H          10.551 [kcal/mol]       44.145 [kJ/mol]       0.01681376 [Eh]
  Correction H             12.624 [kcal/mol]       52.821 [kJ/mol]       0.02011841 [Eh]
  Total H, Enthalpy at  298.15 [K]                                     -93.37934987 [Eh]

  Gibbs free energy, G = H - T * S
    Electronic G            0.000 [kcal/mol]        0.000 [kJ/mol]       0.00000000 [Eh]
    Translational G        -9.197 [kcal/mol]      -38.482 [kJ/mol]      -0.01465703 [Eh]
    Rotational G           -2.931 [kcal/mol]      -12.263 [kJ/mol]      -0.00467060 [Eh]
    Vibrational G          10.421 [kcal/mol]       43.602 [kJ/mol]       0.01660727 [Eh]
  Correction G             -1.707 [kcal/mol]       -7.142 [kJ/mol]      -0.00272037 [Eh]
  Total G, Free enthalpy at  298.15 [K]                                -93.40218865 [Eh]

*** Psi4 exiting successfully. Buy a developer a beer!
