                               Psi4 1.3.2 release

  ==> Input File <==

--------------------------------------------------------------------------
memory 144 GB

molecule {
0 1
F 0.0000000000 0.0000000000 0.0000000000
H 0.0000000000 0.0000000000 0.9157690000
}

set dynamic_level 1
set basis cc-pV(D+d)Z

optimize("wB97X-V")
frequencies("wB97X-V")
--------------------------------------------------------------------------

    Molecular point group: c2v
  Charge       = 0
  Multiplicity = 1
  Basis Set: CC-PV(D+D)Z
    Blend: CC-PV(D+D)Z
  Basis Set: (CC-PV(D+D)Z AUX)
    Blend: CC-PVDZ-JKFIT
  @DF-RKS Final Energy:  -100.40012799825887
    Total Energy =                       -100.4001279982588812
    Molecular point group: c2v
  Basis Set: CC-PV(D+D)Z
    Blend: CC-PV(D+D)Z
  Basis Set: (CC-PV(D+D)Z AUX)
    Blend: CC-PVDZ-JKFIT
  @DF-RKS Final Energy:  -100.40017547426451
    Total Energy =                       -100.4001754742645147
  Basis Set: CC-PV(D+D)Z
    Blend: CC-PV(D+D)Z
  Basis Set: (CC-PV(D+D)Z AUX)
    Blend: CC-PVDZ-JKFIT
  @DF-RKS Final Energy:  -100.40006369804637
    Total Energy =                       -100.4000636980463668
  Basis Set: CC-PV(D+D)Z
    Blend: CC-PV(D+D)Z
  Basis Set: (CC-PV(D+D)Z AUX)
    Blend: CC-PVDZ-JKFIT
  @DF-RKS Final Energy:  -100.40022241320128
    Total Energy =                       -100.4002224132012770
  @DF-RKS Final Energy:  -100.40021772890545
    Total Energy =                       -100.4002177289054458
  @DF-RKS Final Energy:  -100.40021131010080
    Total Energy =                       -100.4002113101008007
  @DF-RKS Final Energy:  -100.40022272928748
    Total Energy =                       -100.4002227292874636
  @DF-RKS Final Energy:  -100.40021497323838
    Total Energy =                       -100.4002149732383913
  @DF-RKS Final Energy:  -100.40021475911949
    Total Energy =                       -100.4002147591194785
  **** Optimization is complete! (in 3 steps) ****
    Final optimized geometry and variables:
  @DF-RKS Final Energy:  -100.40022272928753
    Total Energy =                       -100.4002227292875205
  @DF-RKS Final Energy:  -100.40021497323843
    Total Energy =                       -100.4002149732384197
  Basis Set: CC-PV(D+D)Z
    Blend: CC-PV(D+D)Z
  Basis Set: (CC-PV(D+D)Z AUX)
    Blend: CC-PVDZ-JKFIT
  @DF-RKS Final Energy:  -100.40021475911932
    Total Energy =                       -100.4002147591193221
  Basis Set: CC-PV(D+D)Z
    Blend: CC-PV(D+D)Z
  Basis Set: (CC-PV(D+D)Z AUX)
    Blend: CC-PVDZ-JKFIT
  @DF-RKS Final Energy:  -100.40022272928751
    Total Energy =                       -100.4002227292875062
  Multiplicity = 1
  Basis Set: CC-PV(D+D)Z
    Blend: CC-PV(D+D)Z
  Basis Set: (CC-PV(D+D)Z AUX)
    Blend: CC-PVDZ-JKFIT
  @DF-RKS Final Energy:  -100.40021497323835
    Total Energy =                       -100.4002149732383629
    Molecular point group: c2v

    Geometry (in Angstrom), charge = 0, multiplicity = 1:

       Center              X                  Y                   Z               Mass
    ------------   -----------------  -----------------  -----------------  -----------------
         F            0.000000000000     0.000000000000    -0.046463251444    18.998403162730
         H            0.000000000000     0.000000000000     0.875873842137     1.007825032230

  Charge       = 0
  Multiplicity = 1
  Basis Set: CC-PV(D+D)Z
    Blend: CC-PV(D+D)Z
  Basis Set: (CC-PV(D+D)Z AUX)
    Blend: CC-PVDZ-JKFIT

    Orbital Energies [Eh]
    ---------------------

    Doubly Occupied:

       1A1   -24.737829     2A1    -1.297901     3A1    -0.630920
       1B2    -0.491446     1B1    -0.491446

  @DF-RKS Final Energy:  -100.40021475911946

   => Energetics <=

    Nuclear Repulsion Energy =              5.1636163493536182
    One-Electron Energy =                -150.6077103579902428
    Two-Electron Energy =                  52.7794572093891787
    DFT Exchange-Correlation Energy =      -7.7790432389835189
    Empirical Dispersion Energy =           0.0000000000000000
    VV10 Nonlocal Energy =                  0.0434652791115048
    Total Energy =                       -100.4002147591194642

  Dipole Moment: [D]
     X:     0.0000      Y:     0.0000      Z:     1.8167     Total:     1.8167

  Vibration                       6
  Freq [cm^-1]                4077.0535
  Irrep                           A1
  Reduced mass [u]              1.0583
  Force const [mDyne/A]        10.3647

  ==> Thermochemistry Components <==

  Entropy, S
    Electronic S            0.000 [cal/(mol K)]        0.000 [J/(mol K)]       0.00000000 [mEh/K] (multiplicity = 1)
    Translational S        34.921 [cal/(mol K)]      146.112 [J/(mol K)]       0.05565095 [mEh/K] (mol. weight = 20.0062 [u], P = 101325.00 [Pa])
    Rotational S            6.576 [cal/(mol K)]       27.515 [J/(mol K)]       0.01047984 [mEh/K] (symmetry no. = 1)
    Vibrational S           0.000 [cal/(mol K)]        0.000 [J/(mol K)]       0.00000000 [mEh/K]
  Total S                  41.498 [cal/(mol K)]      173.626 [J/(mol K)]       0.06613079 [mEh/K]
  Correction S              0.000 [cal/(mol K)]        0.000 [J/(mol K)]       0.00000000 [mEh/K]

  Constant volume heat capacity, Cv
    Electronic Cv           0.000 [cal/(mol K)]        0.000 [J/(mol K)]       0.00000000 [mEh/K]
    Translational Cv        2.981 [cal/(mol K)]       12.472 [J/(mol K)]       0.00475022 [mEh/K]
    Rotational Cv           1.987 [cal/(mol K)]        8.314 [J/(mol K)]       0.00316681 [mEh/K]
    Vibrational Cv          0.000 [cal/(mol K)]        0.000 [J/(mol K)]       0.00000000 [mEh/K]
  Total Cv                  4.968 [cal/(mol K)]       20.786 [J/(mol K)]       0.00791703 [mEh/K]
  Correction Cv             0.000 [cal/(mol K)]        0.000 [J/(mol K)]       0.00000000 [mEh/K]

  Constant pressure heat capacity, Cp
    Electronic Cp           0.000 [cal/(mol K)]        0.000 [J/(mol K)]       0.00000000 [mEh/K]
    Translational Cp        4.968 [cal/(mol K)]       20.786 [J/(mol K)]       0.00791703 [mEh/K]
    Rotational Cp           1.987 [cal/(mol K)]        8.314 [J/(mol K)]       0.00316681 [mEh/K]
    Vibrational Cp          0.000 [cal/(mol K)]        0.000 [J/(mol K)]       0.00000000 [mEh/K]
  Total Cp                  6.955 [cal/(mol K)]       29.101 [J/(mol K)]       0.01108384 [mEh/K]
  Correction Cp             0.000 [cal/(mol K)]        0.000 [J/(mol K)]       0.00000000 [mEh/K]

  ==> Thermochemistry Energy Analysis <==

  Raw electronic energy, E0
  Total E0, Electronic energy at well bottom at 0 [K]                 -100.40022273 [Eh]

  Zero-point energy, ZPE_vib = Sum_i nu_i / 2
    Electronic ZPE          0.000 [kcal/mol]        0.000 [kJ/mol]       0.00000000 [Eh]
    Translational ZPE       0.000 [kcal/mol]        0.000 [kJ/mol]       0.00000000 [Eh]
    Rotational ZPE          0.000 [kcal/mol]        0.000 [kJ/mol]       0.00000000 [Eh]
    Vibrational ZPE         5.828 [kcal/mol]       24.386 [kJ/mol]       0.00928821 [Eh]        2038.527 [cm^-1]
  Correction ZPE            5.828 [kcal/mol]       24.386 [kJ/mol]       0.00928821 [Eh]        2038.527 [cm^-1]
  Total ZPE, Electronic energy at 0 [K]                               -100.39093452 [Eh]

  Thermal Energy, E (includes ZPE)
    Electronic E            0.000 [kcal/mol]        0.000 [kJ/mol]       0.00000000 [Eh]
    Translational E         0.889 [kcal/mol]        3.718 [kJ/mol]       0.00141628 [Eh]
    Rotational E            0.592 [kcal/mol]        2.479 [kJ/mol]       0.00094418 [Eh]
    Vibrational E           5.828 [kcal/mol]       24.386 [kJ/mol]       0.00928821 [Eh]
  Correction E              7.310 [kcal/mol]       30.584 [kJ/mol]       0.01164867 [Eh]
  Total E, Electronic energy at  298.15 [K]                           -100.38857406 [Eh]

  Enthalpy, H_trans = E_trans + k_B * T
    Electronic H            0.000 [kcal/mol]        0.000 [kJ/mol]       0.00000000 [Eh]
    Translational H         1.481 [kcal/mol]        6.197 [kJ/mol]       0.00236046 [Eh]
    Rotational H            0.592 [kcal/mol]        2.479 [kJ/mol]       0.00094418 [Eh]
    Vibrational H           5.828 [kcal/mol]       24.386 [kJ/mol]       0.00928821 [Eh]
  Correction H              7.902 [kcal/mol]       33.063 [kJ/mol]       0.01259286 [Eh]
  Total H, Enthalpy at  298.15 [K]                                    -100.38762987 [Eh]

  Gibbs free energy, G = H - T * S
    Electronic G            0.000 [kcal/mol]        0.000 [kJ/mol]       0.00000000 [Eh]
    Translational G        -8.931 [kcal/mol]      -37.366 [kJ/mol]      -0.01423187 [Eh]
    Rotational G           -1.368 [kcal/mol]       -5.725 [kJ/mol]      -0.00218038 [Eh]
    Vibrational G           5.828 [kcal/mol]       24.386 [kJ/mol]       0.00928821 [Eh]
  Correction G             -4.470 [kcal/mol]      -18.704 [kJ/mol]      -0.00712404 [Eh]
  Total G, Free enthalpy at  298.15 [K]                               -100.40734677 [Eh]

*** Psi4 exiting successfully. Buy a developer a beer!
