                               Psi4 1.3.2 release

  ==> Input File <==

--------------------------------------------------------------------------
memory 144 GB

molecule {
0 1
N 0.0000000000 0.0000000000 0.0000000000
H 0.0000000000 0.0000000000 1.0535284100
O 1.1513717966 0.0000000000 -0.3743228181
}

set dynamic_level 1
set basis cc-pV(D+d)Z

optimize("wB97X-V")
frequencies("wB97X-V")
--------------------------------------------------------------------------

    Molecular point group: cs
  Charge       = 0
  Multiplicity = 1
  Basis Set: CC-PV(D+D)Z
    Blend: CC-PV(D+D)Z
  Basis Set: (CC-PV(D+D)Z AUX)
    Blend: CC-PVDZ-JKFIT
  @DF-RKS Final Energy:  -130.43820480866395
    Total Energy =                       -130.4382048086639543
    Molecular point group: cs
  Basis Set: CC-PV(D+D)Z
    Blend: CC-PV(D+D)Z
  Basis Set: (CC-PV(D+D)Z AUX)
    Blend: CC-PVDZ-JKFIT
  @DF-RKS Final Energy:  -130.43823249569613
    Total Energy =                       -130.4382324956961270
  Basis Set: CC-PV(D+D)Z
    Blend: CC-PV(D+D)Z
  Basis Set: (CC-PV(D+D)Z AUX)
    Blend: CC-PVDZ-JKFIT
  @DF-RKS Final Energy:  -130.43817445865665
    Total Energy =                       -130.4381744586566469
  Basis Set: CC-PV(D+D)Z
    Blend: CC-PV(D+D)Z
  Basis Set: (CC-PV(D+D)Z AUX)
    Blend: CC-PVDZ-JKFIT
  @DF-RKS Final Energy:  -130.43824283685001
    Total Energy =                       -130.4382428368500086
  @DF-RKS Final Energy:  -130.43816120670374
    Total Energy =                       -130.4381612067037395
  @DF-RKS Final Energy:  -130.43817820897090
    Total Energy =                       -130.4381782089708963
  @DF-RKS Final Energy:  -130.43822572512974
    Total Energy =                       -130.4382257251297403
  @DF-RKS Final Energy:  -130.43848837385596
    Total Energy =                       -130.4384883738559324
  @DF-RKS Final Energy:  -130.43849576996837
    Total Energy =                       -130.4384957699683696
  @DF-RKS Final Energy:  -130.43847814769029
    Total Energy =                       -130.4384781476902901
  @DF-RKS Final Energy:  -130.43848823840250
    Total Energy =                       -130.4384882384024991
  @DF-RKS Final Energy:  -130.43848325970885
    Total Energy =                       -130.4384832597088462
  @DF-RKS Final Energy:  -130.43847037743586
    Total Energy =                       -130.4384703774358627
  @DF-RKS Final Energy:  -130.43850097926429
    Total Energy =                       -130.4385009792642904
  @DF-RKS Final Energy:  -130.43851343369045
    Total Energy =                       -130.4385134336904457
  @DF-RKS Final Energy:  -130.43850595307350
    Total Energy =                       -130.4385059530735020
  @DF-RKS Final Energy:  -130.43851800743025
    Total Energy =                       -130.4385180074302468
  @DF-RKS Final Energy:  -130.43851430141933
    Total Energy =                       -130.4385143014193602
  @DF-RKS Final Energy:  -130.43850757794192
    Total Energy =                       -130.4385075779419196
  @DF-RKS Final Energy:  -130.43851803773987
    Total Energy =                       -130.4385180377398683
  **** Optimization is complete! (in 4 steps) ****
    Final optimized geometry and variables:
  @DF-RKS Final Energy:  -130.43853338517172
    Total Energy =                       -130.4385333851717235
  @DF-RKS Final Energy:  -130.43853189258539
    Total Energy =                       -130.4385318925853881
  @DF-RKS Final Energy:  -130.43853199889824
    Total Energy =                       -130.4385319988982417
  @DF-RKS Final Energy:  -130.43853092989559
    Total Energy =                       -130.4385309298955917
  @DF-RKS Final Energy:  -130.43853077695687
    Total Energy =                       -130.4385307769568669
  @DF-RKS Final Energy:  -130.43853071240011
    Total Energy =                       -130.4385307124001088
  @DF-RKS Final Energy:  -130.43853080399208
    Total Energy =                       -130.4385308039920801
  @DF-RKS Final Energy:  -130.43853338517175
    Total Energy =                       -130.4385333851717519
  @DF-RKS Final Energy:  -130.43853189258542
    Total Energy =                       -130.4385318925854449
  @DF-RKS Final Energy:  -130.43853199889824
    Total Energy =                       -130.4385319988982417
  @DF-RKS Final Energy:  -130.43853092989562
    Total Energy =                       -130.4385309298956486
  @DF-RKS Final Energy:  -130.43853077695684
    Total Energy =                       -130.4385307769568669
  @DF-RKS Final Energy:  -130.43853071240022
    Total Energy =                       -130.4385307124002225
  @DF-RKS Final Energy:  -130.43853080399208
    Total Energy =                       -130.4385308039920517
  @DF-RKS Final Energy:  -130.43852960151884
    Total Energy =                       -130.4385296015188089
  @DF-RKS Final Energy:  -130.43852965075462
    Total Energy =                       -130.4385296507545888
  Basis Set: CC-PV(D+D)Z
    Blend: CC-PV(D+D)Z
  Basis Set: (CC-PV(D+D)Z AUX)
    Blend: CC-PVDZ-JKFIT
  @DF-RKS Final Energy:  -130.43852891756580
    Total Energy =                       -130.4385289175658045
  Basis Set: CC-PV(D+D)Z
    Blend: CC-PV(D+D)Z
  Basis Set: (CC-PV(D+D)Z AUX)
    Blend: CC-PVDZ-JKFIT
  @DF-RKS Final Energy:  -130.43852871336912
    Total Energy =                       -130.4385287133691236
  Multiplicity = 1
  Basis Set: CC-PV(D+D)Z
    Blend: CC-PV(D+D)Z
  Basis Set: (CC-PV(D+D)Z AUX)
    Blend: CC-PVDZ-JKFIT
  @DF-RKS Final Energy:  -130.43853089817048
    Total Energy =                       -130.4385308981704839
    Molecular point group: cs

    Geometry (in Angstrom), charge = 0, multiplicity = 1:

       Center              X                  Y                   Z               Mass
    ------------   -----------------  -----------------  -----------------  -----------------
         N            0.588722280955     0.153468745773     0.000000000000    14.003074004430
         H            0.591735249935     1.223223241140     0.000000000000     1.007825032230
         O           -0.552693620183    -0.211431526038     0.000000000000    15.994914619570

  Charge       = 0
  Multiplicity = 1
  Basis Set: CC-PV(D+D)Z
    Blend: CC-PV(D+D)Z
  Basis Set: (CC-PV(D+D)Z AUX)
    Blend: CC-PVDZ-JKFIT

    Orbital Energies [Eh]
    ---------------------

    Doubly Occupied:

       1Ap   -19.300236     2Ap   -14.541322     3Ap    -1.307140
       4Ap    -0.839181     5Ap    -0.638640     1App   -0.566225
       6Ap    -0.558007     7Ap    -0.339631

  @DF-RKS Final Energy:  -130.43853095795254

   => Energetics <=

    Nuclear Repulsion Energy =             30.4989360401951295
    One-Electron Energy =                -238.2131428782301441
    Two-Electron Energy =                  88.3631309844697626
    DFT Exchange-Correlation Energy =     -11.1545061554754064
    Empirical Dispersion Energy =           0.0000000000000000
    VV10 Nonlocal Energy =                  0.0670510510881136
    Total Energy =                       -130.4385309579525654

  Dipole Moment: [D]
     X:     0.4522      Y:     1.6243      Z:     0.0000     Total:     1.6861

  Vibration                       7                   8                   9
  Freq [cm^-1]                1583.1342           1754.2484           2892.1589
  Irrep                           Ap                  Ap                  Ap
  Reduced mass [u]              1.1821             12.1082              1.0787
  Force const [mDyne/A]         1.7455             21.9540              5.3162

  ==> Thermochemistry Components <==

  Entropy, S
    Electronic S            0.000 [cal/(mol K)]        0.000 [J/(mol K)]       0.00000000 [mEh/K] (multiplicity = 1)
    Translational S        36.227 [cal/(mol K)]      151.576 [J/(mol K)]       0.05773217 [mEh/K] (mol. weight = 31.0058 [u], P = 101325.00 [Pa])
    Rotational S           16.485 [cal/(mol K)]       68.974 [J/(mol K)]       0.02627077 [mEh/K] (symmetry no. = 1)
    Vibrational S           0.012 [cal/(mol K)]        0.051 [J/(mol K)]       0.00001952 [mEh/K]
  Total S                  52.725 [cal/(mol K)]      220.601 [J/(mol K)]       0.08402245 [mEh/K]
  Correction S              0.000 [cal/(mol K)]        0.000 [J/(mol K)]       0.00000000 [mEh/K]

  Constant volume heat capacity, Cv
    Electronic Cv           0.000 [cal/(mol K)]        0.000 [J/(mol K)]       0.00000000 [mEh/K]
    Translational Cv        2.981 [cal/(mol K)]       12.472 [J/(mol K)]       0.00475022 [mEh/K]
    Rotational Cv           2.981 [cal/(mol K)]       12.472 [J/(mol K)]       0.00475022 [mEh/K]
    Vibrational Cv          0.086 [cal/(mol K)]        0.361 [J/(mol K)]       0.00013734 [mEh/K]
  Total Cv                  6.048 [cal/(mol K)]       25.304 [J/(mol K)]       0.00963777 [mEh/K]
  Correction Cv             0.000 [cal/(mol K)]        0.000 [J/(mol K)]       0.00000000 [mEh/K]

  Constant pressure heat capacity, Cp
    Electronic Cp           0.000 [cal/(mol K)]        0.000 [J/(mol K)]       0.00000000 [mEh/K]
    Translational Cp        4.968 [cal/(mol K)]       20.786 [J/(mol K)]       0.00791703 [mEh/K]
    Rotational Cp           2.981 [cal/(mol K)]       12.472 [J/(mol K)]       0.00475022 [mEh/K]
    Vibrational Cp          0.086 [cal/(mol K)]        0.361 [J/(mol K)]       0.00013734 [mEh/K]
  Total Cp                  8.035 [cal/(mol K)]       33.618 [J/(mol K)]       0.01280458 [mEh/K]
  Correction Cp             0.000 [cal/(mol K)]        0.000 [J/(mol K)]       0.00000000 [mEh/K]

  ==> Thermochemistry Energy Analysis <==

  Raw electronic energy, E0
  Total E0, Electronic energy at well bottom at 0 [K]                 -130.43853339 [Eh]

  Zero-point energy, ZPE_vib = Sum_i nu_i / 2
    Electronic ZPE          0.000 [kcal/mol]        0.000 [kJ/mol]       0.00000000 [Eh]
    Translational ZPE       0.000 [kcal/mol]        0.000 [kJ/mol]       0.00000000 [Eh]
    Rotational ZPE          0.000 [kcal/mol]        0.000 [kJ/mol]       0.00000000 [Eh]
    Vibrational ZPE         8.906 [kcal/mol]       37.261 [kJ/mol]       0.01419194 [Eh]        3114.771 [cm^-1]
  Correction ZPE            8.906 [kcal/mol]       37.261 [kJ/mol]       0.01419194 [Eh]        3114.771 [cm^-1]
  Total ZPE, Electronic energy at 0 [K]                               -130.42434145 [Eh]

  Thermal Energy, E (includes ZPE)
    Electronic E            0.000 [kcal/mol]        0.000 [kJ/mol]       0.00000000 [Eh]
    Translational E         0.889 [kcal/mol]        3.718 [kJ/mol]       0.00141628 [Eh]
    Rotational E            0.889 [kcal/mol]        3.718 [kJ/mol]       0.00141628 [Eh]
    Vibrational E           8.909 [kcal/mol]       37.274 [kJ/mol]       0.01419711 [Eh]
  Correction E             10.686 [kcal/mol]       44.711 [kJ/mol]       0.01702966 [Eh]
  Total E, Electronic energy at  298.15 [K]                           -130.42150373 [Eh]

  Enthalpy, H_trans = E_trans + k_B * T
    Electronic H            0.000 [kcal/mol]        0.000 [kJ/mol]       0.00000000 [Eh]
    Translational H         1.481 [kcal/mol]        6.197 [kJ/mol]       0.00236046 [Eh]
    Rotational H            0.889 [kcal/mol]        3.718 [kJ/mol]       0.00141628 [Eh]
    Vibrational H           8.909 [kcal/mol]       37.274 [kJ/mol]       0.01419711 [Eh]
  Correction H             11.279 [kcal/mol]       47.190 [kJ/mol]       0.01797384 [Eh]
  Total H, Enthalpy at  298.15 [K]                                    -130.42055954 [Eh]

  Gibbs free energy, G = H - T * S
    Electronic G            0.000 [kcal/mol]        0.000 [kJ/mol]       0.00000000 [Eh]
    Translational G        -9.320 [kcal/mol]      -38.995 [kJ/mol]      -0.01485238 [Eh]
    Rotational G           -4.026 [kcal/mol]      -16.846 [kJ/mol]      -0.00641635 [Eh]
    Vibrational G           8.905 [kcal/mol]       37.259 [kJ/mol]       0.01419129 [Eh]
  Correction G             -4.441 [kcal/mol]      -18.582 [kJ/mol]      -0.00707745 [Eh]
  Total G, Free enthalpy at  298.15 [K]                               -130.44561084 [Eh]

*** Psi4 exiting successfully. Buy a developer a beer!
