                               Psi4 1.3.2 release

  ==> Input File <==

--------------------------------------------------------------------------
memory 144 GB

molecule {
0 1
O 0.0000000000 0.0000000000 0.0000000000
H 0.0000000000 0.0000000000 0.9638997500
Cl 1.6530447720 0.0000000000 -0.3711121967
}

set dynamic_level 1
set basis cc-pV(D+d)Z

optimize("wB97X-V")
frequencies("wB97X-V")
--------------------------------------------------------------------------

    Molecular point group: cs
  Charge       = 0
  Multiplicity = 1
  Basis Set: CC-PV(D+D)Z
    Blend: CC-PV(D+D)Z
  Basis Set: (CC-PV(D+D)Z AUX)
    Blend: CC-PVDZ-JKFIT
  @DF-RKS Final Energy:  -535.86487254598649
    Total Energy =                       -535.8648725459863726
    Molecular point group: cs
  Basis Set: CC-PV(D+D)Z
    Blend: CC-PV(D+D)Z
  Basis Set: (CC-PV(D+D)Z AUX)
    Blend: CC-PVDZ-JKFIT
  @DF-RKS Final Energy:  -535.86487096863425
    Total Energy =                       -535.8648709686343636
  Basis Set: CC-PV(D+D)Z
    Blend: CC-PV(D+D)Z
  Basis Set: (CC-PV(D+D)Z AUX)
    Blend: CC-PVDZ-JKFIT
  @DF-RKS Final Energy:  -535.86487351314474
    Total Energy =                       -535.8648735131448575
  Basis Set: CC-PV(D+D)Z
    Blend: CC-PV(D+D)Z
  Basis Set: (CC-PV(D+D)Z AUX)
    Blend: CC-PVDZ-JKFIT
  @DF-RKS Final Energy:  -535.86490359955997
    Total Energy =                       -535.8649035995599661
  @DF-RKS Final Energy:  -535.86483172946532
    Total Energy =                       -535.8648317294652088
  @DF-RKS Final Energy:  -535.86484468713525
    Total Energy =                       -535.8648446871353599
  @DF-RKS Final Energy:  -535.86489441571382
    Total Energy =                       -535.8648944157138203
  @DF-RKS Final Energy:  -535.86494191724205
    Total Energy =                       -535.8649419172421631
  @DF-RKS Final Energy:  -535.86494090901874
    Total Energy =                       -535.8649409090187419
  @DF-RKS Final Energy:  -535.86494230565029
    Total Energy =                       -535.8649423056502883
  @DF-RKS Final Energy:  -535.86493821711406
    Total Energy =                       -535.8649382171140587
  @DF-RKS Final Energy:  -535.86493633348584
    Total Energy =                       -535.8649363334858435
  @DF-RKS Final Energy:  -535.86493791954638
    Total Energy =                       -535.8649379195463780
  @DF-RKS Final Energy:  -535.86494015420328
    Total Energy =                       -535.8649401542031683
  @DF-RKS Final Energy:  -535.86494245114807
    Total Energy =                       -535.8649424511480674
  @DF-RKS Final Energy:  -535.86494190545932
    Total Energy =                       -535.8649419054594318
  @DF-RKS Final Energy:  -535.86494237835734
    Total Energy =                       -535.8649423783574548
  @DF-RKS Final Energy:  -535.86493786983840
    Total Energy =                       -535.8649378698386272
  @DF-RKS Final Energy:  -535.86493776971292
    Total Energy =                       -535.8649377697129239
  @DF-RKS Final Energy:  -535.86493983995433
    Total Energy =                       -535.8649398399542179
  **** Optimization is complete! (in 3 steps) ****
    Final optimized geometry and variables:
  @DF-RKS Final Energy:  -535.86494245119422
    Total Energy =                       -535.8649424511942243
  @DF-RKS Final Energy:  -535.86494190535200
    Total Energy =                       -535.8649419053519978
  @DF-RKS Final Energy:  -535.86494237836348
    Total Energy =                       -535.8649423783634802
  @DF-RKS Final Energy:  -535.86493786985102
    Total Energy =                       -535.8649378698507917
  @DF-RKS Final Energy:  -535.86493776970428
    Total Energy =                       -535.8649377697043974
  @DF-RKS Final Energy:  -535.86493983985201
    Total Energy =                       -535.8649398398520134
  @DF-RKS Final Energy:  -535.86493930980237
    Total Energy =                       -535.8649393098024802
  @DF-RKS Final Energy:  -535.86494245119434
    Total Energy =                       -535.8649424511942243
  @DF-RKS Final Energy:  -535.86494190535200
    Total Energy =                       -535.8649419053519978
  @DF-RKS Final Energy:  -535.86494237836314
    Total Energy =                       -535.8649423783631391
  @DF-RKS Final Energy:  -535.86493786985125
    Total Energy =                       -535.8649378698513601
  @DF-RKS Final Energy:  -535.86493776970440
    Total Energy =                       -535.8649377697043974
  @DF-RKS Final Energy:  -535.86493983985190
    Total Energy =                       -535.8649398398518997
  @DF-RKS Final Energy:  -535.86493930980237
    Total Energy =                       -535.8649393098022529
  @DF-RKS Final Energy:  -535.86493773486552
    Total Energy =                       -535.8649377348654070
  @DF-RKS Final Energy:  -535.86493736846387
    Total Energy =                       -535.8649373684638704
  Basis Set: CC-PV(D+D)Z
    Blend: CC-PV(D+D)Z
  Basis Set: (CC-PV(D+D)Z AUX)
    Blend: CC-PVDZ-JKFIT
  @DF-RKS Final Energy:  -535.86493944887866
    Total Energy =                       -535.8649394488786584
  Basis Set: CC-PV(D+D)Z
    Blend: CC-PV(D+D)Z
  Basis Set: (CC-PV(D+D)Z AUX)
    Blend: CC-PVDZ-JKFIT
  @DF-RKS Final Energy:  -535.86493949887836
    Total Energy =                       -535.8649394988782433
  Multiplicity = 1
  Basis Set: CC-PV(D+D)Z
    Blend: CC-PV(D+D)Z
  Basis Set: (CC-PV(D+D)Z AUX)
    Blend: CC-PVDZ-JKFIT
  @DF-RKS Final Energy:  -535.86494041643596
    Total Energy =                       -535.8649404164358430
    Molecular point group: cs

    Geometry (in Angstrom), charge = 0, multiplicity = 1:

       Center              X                  Y                   Z               Mass
    ------------   -----------------  -----------------  -----------------  -----------------
         O            1.113812181816     0.228048270470     0.000000000000    15.994914619570
         H            1.109176383166     1.201044833596     0.000000000000     1.007825032230
         CL          -0.541430016211    -0.138925223187     0.000000000000    34.968852682000

  Charge       = 0
  Multiplicity = 1
  Basis Set: CC-PV(D+D)Z
    Blend: CC-PV(D+D)Z
  Basis Set: (CC-PV(D+D)Z AUX)
    Blend: CC-PVDZ-JKFIT

    Orbital Energies [Eh]
    ---------------------

    Doubly Occupied:

       1Ap  -101.568808     2Ap   -19.293786     3Ap    -9.594707
       4Ap    -7.354661     5Ap    -7.338241     1App   -7.337856
       6Ap    -1.198010     7Ap    -0.920943     8Ap    -0.636339
       9Ap    -0.544201     2App   -0.517404    10Ap    -0.419597
       3App   -0.383065

  @DF-RKS Final Energy:  -535.86494100813570

   => Energetics <=

    Nuclear Repulsion Energy =             51.0304051329314206
    One-Electron Energy =                -840.7718583078329857
    Two-Electron Energy =                 281.4605838018995883
    DFT Exchange-Correlation Energy =     -27.6929197797888023
    Empirical Dispersion Energy =           0.0000000000000000
    VV10 Nonlocal Energy =                  0.1088481446550395
    Total Energy =                       -535.8649410081358155

  Dipole Moment: [D]
     X:    -0.1652      Y:     1.6593      Z:     0.0000     Total:     1.6675

  Vibration                       7                   8                   9
  Freq [cm^-1]                 781.0295           1267.0071           3782.8341
  Irrep                           Ap                  Ap                  Ap
  Reduced mass [u]             17.0371              1.0734              1.0684
  Force const [mDyne/A]         6.1232              1.0152              9.0074

  ==> Thermochemistry Components <==

  Entropy, S
    Electronic S            0.000 [cal/(mol K)]        0.000 [J/(mol K)]       0.00000000 [mEh/K] (multiplicity = 1)
    Translational S        37.767 [cal/(mol K)]      158.018 [J/(mol K)]       0.06018576 [mEh/K] (mol. weight = 51.9716 [u], P = 101325.00 [Pa])
    Rotational S           18.425 [cal/(mol K)]       77.090 [J/(mol K)]       0.02936202 [mEh/K] (symmetry no. = 1)
    Vibrational S           0.255 [cal/(mol K)]        1.065 [J/(mol K)]       0.00040578 [mEh/K]
  Total S                  56.447 [cal/(mol K)]      236.173 [J/(mol K)]       0.08995356 [mEh/K]
  Correction S              0.000 [cal/(mol K)]        0.000 [J/(mol K)]       0.00000000 [mEh/K]

  Constant volume heat capacity, Cv
    Electronic Cv           0.000 [cal/(mol K)]        0.000 [J/(mol K)]       0.00000000 [mEh/K]
    Translational Cv        2.981 [cal/(mol K)]       12.472 [J/(mol K)]       0.00475022 [mEh/K]
    Rotational Cv           2.981 [cal/(mol K)]       12.472 [J/(mol K)]       0.00475022 [mEh/K]
    Vibrational Cv          0.848 [cal/(mol K)]        3.546 [J/(mol K)]       0.00135063 [mEh/K]
  Total Cv                  6.809 [cal/(mol K)]       28.489 [J/(mol K)]       0.01085106 [mEh/K]
  Correction Cv             0.000 [cal/(mol K)]        0.000 [J/(mol K)]       0.00000000 [mEh/K]

  Constant pressure heat capacity, Cp
    Electronic Cp           0.000 [cal/(mol K)]        0.000 [J/(mol K)]       0.00000000 [mEh/K]
    Translational Cp        4.968 [cal/(mol K)]       20.786 [J/(mol K)]       0.00791703 [mEh/K]
    Rotational Cp           2.981 [cal/(mol K)]       12.472 [J/(mol K)]       0.00475022 [mEh/K]
    Vibrational Cp          0.848 [cal/(mol K)]        3.546 [J/(mol K)]       0.00135063 [mEh/K]
  Total Cp                  8.796 [cal/(mol K)]       36.804 [J/(mol K)]       0.01401787 [mEh/K]
  Correction Cp             0.000 [cal/(mol K)]        0.000 [J/(mol K)]       0.00000000 [mEh/K]

  ==> Thermochemistry Energy Analysis <==

  Raw electronic energy, E0
  Total E0, Electronic energy at well bottom at 0 [K]                 -535.86494245 [Eh]

  Zero-point energy, ZPE_vib = Sum_i nu_i / 2
    Electronic ZPE          0.000 [kcal/mol]        0.000 [kJ/mol]       0.00000000 [Eh]
    Translational ZPE       0.000 [kcal/mol]        0.000 [kJ/mol]       0.00000000 [Eh]
    Rotational ZPE          0.000 [kcal/mol]        0.000 [kJ/mol]       0.00000000 [Eh]
    Vibrational ZPE         8.336 [kcal/mol]       34.876 [kJ/mol]       0.01328370 [Eh]        2915.435 [cm^-1]
  Correction ZPE            8.336 [kcal/mol]       34.876 [kJ/mol]       0.01328370 [Eh]        2915.435 [cm^-1]
  Total ZPE, Electronic energy at 0 [K]                               -535.85165875 [Eh]

  Thermal Energy, E (includes ZPE)
    Electronic E            0.000 [kcal/mol]        0.000 [kJ/mol]       0.00000000 [Eh]
    Translational E         0.889 [kcal/mol]        3.718 [kJ/mol]       0.00141628 [Eh]
    Rotational E            0.889 [kcal/mol]        3.718 [kJ/mol]       0.00141628 [Eh]
    Vibrational E           8.396 [kcal/mol]       35.131 [kJ/mol]       0.01338055 [Eh]
  Correction E             10.174 [kcal/mol]       42.567 [kJ/mol]       0.01621310 [Eh]
  Total E, Electronic energy at  298.15 [K]                           -535.84872935 [Eh]

  Enthalpy, H_trans = E_trans + k_B * T
    Electronic H            0.000 [kcal/mol]        0.000 [kJ/mol]       0.00000000 [Eh]
    Translational H         1.481 [kcal/mol]        6.197 [kJ/mol]       0.00236046 [Eh]
    Rotational H            0.889 [kcal/mol]        3.718 [kJ/mol]       0.00141628 [Eh]
    Vibrational H           8.396 [kcal/mol]       35.131 [kJ/mol]       0.01338055 [Eh]
  Correction H             10.766 [kcal/mol]       45.046 [kJ/mol]       0.01715729 [Eh]
  Total H, Enthalpy at  298.15 [K]                                    -535.84778516 [Eh]

  Gibbs free energy, G = H - T * S
    Electronic G            0.000 [kcal/mol]        0.000 [kJ/mol]       0.00000000 [Eh]
    Translational G        -9.779 [kcal/mol]      -40.916 [kJ/mol]      -0.01558392 [Eh]
    Rotational G           -4.605 [kcal/mol]      -19.266 [kJ/mol]      -0.00733801 [Eh]
    Vibrational G           8.321 [kcal/mol]       34.813 [kJ/mol]       0.01325957 [Eh]
  Correction G             -6.063 [kcal/mol]      -25.369 [kJ/mol]      -0.00966236 [Eh]
  Total G, Free enthalpy at  298.15 [K]                               -535.87460482 [Eh]

*** Psi4 exiting successfully. Buy a developer a beer!
