                               Psi4 1.3.2 release

  ==> Input File <==

--------------------------------------------------------------------------
memory 144 GB

molecule {
0 1
N 0.0000000000 0.0000000000 0.0000000000
N 0.0000000000 0.0000000000 1.1003000000
}

set dynamic_level 1
set basis cc-pV(D+d)Z

optimize("wB97X-V")
frequencies("wB97X-V")
--------------------------------------------------------------------------

    Molecular point group: d2h
  Charge       = 0
  Multiplicity = 1
  Basis Set: CC-PV(D+D)Z
    Blend: CC-PV(D+D)Z
  Basis Set: (CC-PV(D+D)Z AUX)
    Blend: CC-PVDZ-JKFIT
  @DF-RKS Final Energy:  -109.50370246987282
    Total Energy =                       -109.5037024698728203
    Molecular point group: d2h
  Basis Set: CC-PV(D+D)Z
    Blend: CC-PV(D+D)Z
  Basis Set: (CC-PV(D+D)Z AUX)
    Blend: CC-PVDZ-JKFIT
  @DF-RKS Final Energy:  -109.50371397739333
    Total Energy =                       -109.5037139773933319
  Basis Set: CC-PV(D+D)Z
    Blend: CC-PV(D+D)Z
  Basis Set: (CC-PV(D+D)Z AUX)
    Blend: CC-PVDZ-JKFIT
  @DF-RKS Final Energy:  -109.50368492621647
    Total Energy =                       -109.5036849262164509
  Basis Set: CC-PV(D+D)Z
    Blend: CC-PV(D+D)Z
  Basis Set: (CC-PV(D+D)Z AUX)
    Blend: CC-PVDZ-JKFIT
  @DF-RKS Final Energy:  -109.50371998580890
    Total Energy =                       -109.5037199858089139
  @DF-RKS Final Energy:  -109.50371773355195
    Total Energy =                       -109.5037177335519516
  @DF-RKS Final Energy:  -109.50371629818081
    Total Energy =                       -109.5037162981808052
  @DF-RKS Final Energy:  -109.50372002848167
    Total Energy =                       -109.5037200284816663
  @DF-RKS Final Energy:  -109.50371706693298
    Total Energy =                       -109.5037170669329782
  @DF-RKS Final Energy:  -109.50371705487635
    Total Energy =                       -109.5037170548763470
  **** Optimization is complete! (in 3 steps) ****
    Final optimized geometry and variables:
  @DF-RKS Final Energy:  -109.50372002848164
    Total Energy =                       -109.5037200284816379
  @DF-RKS Final Energy:  -109.50371706693294
    Total Energy =                       -109.5037170669329356
  Basis Set: CC-PV(D+D)Z
    Blend: CC-PV(D+D)Z
  Basis Set: (CC-PV(D+D)Z AUX)
    Blend: CC-PVDZ-JKFIT
  @DF-RKS Final Energy:  -109.50371705487632
    Total Energy =                       -109.5037170548763186
  Basis Set: CC-PV(D+D)Z
    Blend: CC-PV(D+D)Z
  Basis Set: (CC-PV(D+D)Z AUX)
    Blend: CC-PVDZ-JKFIT
  @DF-RKS Final Energy:  -109.50372002848175
    Total Energy =                       -109.5037200284817658
  Multiplicity = 1
  Basis Set: CC-PV(D+D)Z
    Blend: CC-PV(D+D)Z
  Basis Set: (CC-PV(D+D)Z AUX)
    Blend: CC-PVDZ-JKFIT
  @DF-RKS Final Energy:  -109.50371706693291
    Total Energy =                       -109.5037170669329072
    Molecular point group: d2h

    Geometry (in Angstrom), charge = 0, multiplicity = 1:

       Center              X                  Y                   Z               Mass
    ------------   -----------------  -----------------  -----------------  -----------------
         N            0.000000000000     0.000000000000    -0.550862824843    14.003074004430
         N            0.000000000000     0.000000000000     0.550862824843    14.003074004430

  Charge       = 0
  Multiplicity = 1
  Basis Set: CC-PV(D+D)Z
    Blend: CC-PV(D+D)Z
  Basis Set: (CC-PV(D+D)Z AUX)
    Blend: CC-PVDZ-JKFIT

    Orbital Energies [Eh]
    ---------------------

    Doubly Occupied:

       1Ag   -14.519897     1B1u  -14.518337     2Ag    -1.248441
       2B1u   -0.664276     1B2u   -0.566140     1B3u   -0.566140
       3Ag    -0.531127

  @DF-RKS Final Energy:  -109.50371705487633

   => Energetics <=

    Nuclear Repulsion Energy =             23.5355175131161047
    One-Electron Energy =                -194.3348210965810097
    Two-Electron Energy =                  70.9262865257010873
    DFT Exchange-Correlation Energy =      -9.6897162886821420
    Empirical Dispersion Energy =           0.0000000000000000
    VV10 Nonlocal Energy =                  0.0590162915696101
    Total Energy =                       -109.5037170548763470

  Dipole Moment: [D]
     X:     0.0000      Y:     0.0000      Z:    -0.0000     Total:     0.0000

  Vibration                       6
  Freq [cm^-1]                2504.6686
  Irrep                           Ag
  Reduced mass [u]             14.0031
  Force const [mDyne/A]        51.7576

  ==> Thermochemistry Components <==

  Entropy, S
    Electronic S            0.000 [cal/(mol K)]        0.000 [J/(mol K)]       0.00000000 [mEh/K] (multiplicity = 1)
    Translational S        35.924 [cal/(mol K)]      150.307 [J/(mol K)]       0.05724883 [mEh/K] (mol. weight = 28.0061 [u], P = 101325.00 [Pa])
    Rotational S            9.852 [cal/(mol K)]       41.219 [J/(mol K)]       0.01569963 [mEh/K] (symmetry no. = 2)
    Vibrational S           0.000 [cal/(mol K)]        0.001 [J/(mol K)]       0.00000023 [mEh/K]
  Total S                  45.776 [cal/(mol K)]      191.527 [J/(mol K)]       0.07294869 [mEh/K]
  Correction S              0.000 [cal/(mol K)]        0.000 [J/(mol K)]       0.00000000 [mEh/K]

  Constant volume heat capacity, Cv
    Electronic Cv           0.000 [cal/(mol K)]        0.000 [J/(mol K)]       0.00000000 [mEh/K]
    Translational Cv        2.981 [cal/(mol K)]       12.472 [J/(mol K)]       0.00475022 [mEh/K]
    Rotational Cv           1.987 [cal/(mol K)]        8.314 [J/(mol K)]       0.00316681 [mEh/K]
    Vibrational Cv          0.002 [cal/(mol K)]        0.007 [J/(mol K)]       0.00000261 [mEh/K]
  Total Cv                  4.970 [cal/(mol K)]       20.793 [J/(mol K)]       0.00791963 [mEh/K]
  Correction Cv             0.000 [cal/(mol K)]        0.000 [J/(mol K)]       0.00000000 [mEh/K]

  Constant pressure heat capacity, Cp
    Electronic Cp           0.000 [cal/(mol K)]        0.000 [J/(mol K)]       0.00000000 [mEh/K]
    Translational Cp        4.968 [cal/(mol K)]       20.786 [J/(mol K)]       0.00791703 [mEh/K]
    Rotational Cp           1.987 [cal/(mol K)]        8.314 [J/(mol K)]       0.00316681 [mEh/K]
    Vibrational Cp          0.002 [cal/(mol K)]        0.007 [J/(mol K)]       0.00000261 [mEh/K]
  Total Cp                  6.957 [cal/(mol K)]       29.107 [J/(mol K)]       0.01108644 [mEh/K]
  Correction Cp             0.000 [cal/(mol K)]        0.000 [J/(mol K)]       0.00000000 [mEh/K]

  ==> Thermochemistry Energy Analysis <==

  Raw electronic energy, E0
  Total E0, Electronic energy at well bottom at 0 [K]                 -109.50372003 [Eh]

  Zero-point energy, ZPE_vib = Sum_i nu_i / 2
    Electronic ZPE          0.000 [kcal/mol]        0.000 [kJ/mol]       0.00000000 [Eh]
    Translational ZPE       0.000 [kcal/mol]        0.000 [kJ/mol]       0.00000000 [Eh]
    Rotational ZPE          0.000 [kcal/mol]        0.000 [kJ/mol]       0.00000000 [Eh]
    Vibrational ZPE         3.581 [kcal/mol]       14.981 [kJ/mol]       0.00570605 [Eh]        1252.334 [cm^-1]
  Correction ZPE            3.581 [kcal/mol]       14.981 [kJ/mol]       0.00570605 [Eh]        1252.334 [cm^-1]
  Total ZPE, Electronic energy at 0 [K]                               -109.49801397 [Eh]

  Thermal Energy, E (includes ZPE)
    Electronic E            0.000 [kcal/mol]        0.000 [kJ/mol]       0.00000000 [Eh]
    Translational E         0.889 [kcal/mol]        3.718 [kJ/mol]       0.00141628 [Eh]
    Rotational E            0.592 [kcal/mol]        2.479 [kJ/mol]       0.00094418 [Eh]
    Vibrational E           3.581 [kcal/mol]       14.981 [kJ/mol]       0.00570612 [Eh]
  Correction E              5.062 [kcal/mol]       21.179 [kJ/mol]       0.00806658 [Eh]
  Total E, Electronic energy at  298.15 [K]                           -109.49565345 [Eh]

  Enthalpy, H_trans = E_trans + k_B * T
    Electronic H            0.000 [kcal/mol]        0.000 [kJ/mol]       0.00000000 [Eh]
    Translational H         1.481 [kcal/mol]        6.197 [kJ/mol]       0.00236046 [Eh]
    Rotational H            0.592 [kcal/mol]        2.479 [kJ/mol]       0.00094418 [Eh]
    Vibrational H           3.581 [kcal/mol]       14.981 [kJ/mol]       0.00570612 [Eh]
  Correction H              5.654 [kcal/mol]       23.658 [kJ/mol]       0.00901077 [Eh]
  Total H, Enthalpy at  298.15 [K]                                    -109.49470926 [Eh]

  Gibbs free energy, G = H - T * S
    Electronic G            0.000 [kcal/mol]        0.000 [kJ/mol]       0.00000000 [Eh]
    Translational G        -9.230 [kcal/mol]      -38.617 [kJ/mol]      -0.01470828 [Eh]
    Rotational G           -2.345 [kcal/mol]       -9.811 [kJ/mol]      -0.00373666 [Eh]
    Vibrational G           3.581 [kcal/mol]       14.981 [kJ/mol]       0.00570605 [Eh]
  Correction G             -7.994 [kcal/mol]      -33.446 [kJ/mol]      -0.01273889 [Eh]
  Total G, Free enthalpy at  298.15 [K]                               -109.51645892 [Eh]

*** Psi4 exiting successfully. Buy a developer a beer!
