                               Psi4 1.3.2 release

  ==> Input File <==

--------------------------------------------------------------------------
memory 144 GB

molecule {
0 1
N 0.0000000000 0.0000000000 0.0000000000
H 0.0000000000 0.0000000000 1.0124000000
H 0.9722998620 0.0000000000 -0.2821112163
H -0.3756003142 0.8968229622 -0.2821112163
}

set dynamic_level 1
set basis cc-pV(D+d)Z

optimize("wB97X-V")
frequencies("wB97X-V")
--------------------------------------------------------------------------

    Molecular point group: cs
  Charge       = 0
  Multiplicity = 1
  Basis Set: CC-PV(D+D)Z
    Blend: CC-PV(D+D)Z
  Basis Set: (CC-PV(D+D)Z AUX)
    Blend: CC-PVDZ-JKFIT
  @DF-RKS Final Energy:   -56.53162824280977
    Total Energy =                        -56.5316282428097665
    Molecular point group: cs
  Basis Set: CC-PV(D+D)Z
    Blend: CC-PV(D+D)Z
  Basis Set: (CC-PV(D+D)Z AUX)
    Blend: CC-PVDZ-JKFIT
  @DF-RKS Final Energy:   -56.53165295610294
    Total Energy =                        -56.5316529561029455
  Basis Set: CC-PV(D+D)Z
    Blend: CC-PV(D+D)Z
  Basis Set: (CC-PV(D+D)Z AUX)
    Blend: CC-PVDZ-JKFIT
  @DF-RKS Final Energy:   -56.53159782302124
    Total Energy =                        -56.5315978230212366
  Basis Set: CC-PV(D+D)Z
    Blend: CC-PV(D+D)Z
  Basis Set: (CC-PV(D+D)Z AUX)
    Blend: CC-PVDZ-JKFIT
  @DF-RKS Final Energy:   -56.53165478330736
    Total Energy =                        -56.5316547833073599
  @DF-RKS Final Energy:   -56.53159637125336
    Total Energy =                        -56.5315963712533573
  @DF-RKS Final Energy:   -56.53158271897811
    Total Energy =                        -56.5315827189781075
  @DF-RKS Final Energy:   -56.53166485461400
    Total Energy =                        -56.5316648546140001
  @DF-RKS Final Energy:   -56.53158271350961
    Total Energy =                        -56.5315827135096001
  @DF-RKS Final Energy:   -56.53166485995538
    Total Energy =                        -56.5316648599553844
  @DF-RKS Final Energy:   -56.53192858401145
    Total Energy =                        -56.5319285840114460
  @DF-RKS Final Energy:   -56.53193312683019
    Total Energy =                        -56.5319331268301966
  @DF-RKS Final Energy:   -56.53191850771358
    Total Energy =                        -56.5319185077135842
  @DF-RKS Final Energy:   -56.53193364875101
    Total Energy =                        -56.5319336487510142
  @DF-RKS Final Energy:   -56.53191828383332
    Total Energy =                        -56.5319182838333276
  @DF-RKS Final Energy:   -56.53192266920482
    Total Energy =                        -56.5319226692048176
  @DF-RKS Final Energy:   -56.53192604864353
    Total Energy =                        -56.5319260486435340
  @DF-RKS Final Energy:   -56.53192266733846
    Total Energy =                        -56.5319226673384634
  @DF-RKS Final Energy:   -56.53192605045818
    Total Energy =                        -56.5319260504581820
  @DF-RKS Final Energy:   -56.53196605880907
    Total Energy =                        -56.5319660588090684
  @DF-RKS Final Energy:   -56.53196346171658
    Total Energy =                        -56.5319634617165789
  **** Optimization is complete! (in 3 steps) ****
    Final optimized geometry and variables:
  @DF-RKS Final Energy:   -56.53196229350017
    Total Energy =                        -56.5319622935001647
  @DF-RKS Final Energy:   -56.53196148710147
    Total Energy =                        -56.5319614871014622
  @DF-RKS Final Energy:   -56.53196229249173
    Total Energy =                        -56.5319622924917340
  @DF-RKS Final Energy:   -56.53196148818739
    Total Energy =                        -56.5319614881873846
  @DF-RKS Final Energy:   -56.53196317675715
    Total Energy =                        -56.5319631767571522
  @DF-RKS Final Energy:   -56.53196384949197
    Total Energy =                        -56.5319638494919730
  @DF-RKS Final Energy:   -56.53195785964201
    Total Energy =                        -56.5319578596420129
  @DF-RKS Final Energy:   -56.53195896749268
    Total Energy =                        -56.5319589674926846
  @DF-RKS Final Energy:   -56.53196272599621
    Total Energy =                        -56.5319627259962090
  @DF-RKS Final Energy:   -56.53196390435897
    Total Energy =                        -56.5319639043589746
  @DF-RKS Final Energy:   -56.53196263690543
    Total Energy =                        -56.5319626369054333
  @DF-RKS Final Energy:   -56.53196380283315
    Total Energy =                        -56.5319638028331610
  @DF-RKS Final Energy:   -56.53195812736328
    Total Energy =                        -56.5319581273632821
  @DF-RKS Final Energy:   -56.53195928961478
    Total Energy =                        -56.5319592896147824
  @DF-RKS Final Energy:   -56.53195520093381
    Total Energy =                        -56.5319552009338153
  @DF-RKS Final Energy:   -56.53195678150468
    Total Energy =                        -56.5319567815046824
  Basis Set: CC-PV(D+D)Z
    Blend: CC-PV(D+D)Z
  Basis Set: (CC-PV(D+D)Z AUX)
    Blend: CC-PVDZ-JKFIT
  @DF-RKS Final Energy:   -56.53196189954322
    Total Energy =                        -56.5319618995432194
  Basis Set: CC-PV(D+D)Z
    Blend: CC-PV(D+D)Z
  Basis Set: (CC-PV(D+D)Z AUX)
    Blend: CC-PVDZ-JKFIT
  @DF-RKS Final Energy:   -56.53196329731682
    Total Energy =                        -56.5319632973168211
  Multiplicity = 1
  Basis Set: CC-PV(D+D)Z
    Blend: CC-PV(D+D)Z
  Basis Set: (CC-PV(D+D)Z AUX)
    Blend: CC-PVDZ-JKFIT
  @DF-RKS Final Energy:   -56.53196385856542
    Total Energy =                        -56.5319638585654189
    Molecular point group: c1

    Geometry (in Angstrom), charge = 0, multiplicity = 1:

       Center              X                  Y                   Z               Mass
    ------------   -----------------  -----------------  -----------------  -----------------
         N           -0.047308625599    -0.056851549425    -0.000258690710    14.003074004430
         H            0.577939163856    -0.034083030873     0.809932059962     1.007825032230
         H            0.578782157347    -0.037190425693    -0.809057498942     1.007825032230
         H           -0.499398706540     0.861188797433     0.002719778316     1.007825032230

  Charge       = 0
  Multiplicity = 1
  Basis Set: CC-PV(D+D)Z
    Blend: CC-PV(D+D)Z
  Basis Set: (CC-PV(D+D)Z AUX)
    Blend: CC-PVDZ-JKFIT

    Orbital Energies [Eh]
    ---------------------

    Doubly Occupied:

       1A    -14.393922     2A     -0.968603     3A     -0.551670
       4A     -0.550504     5A     -0.362775

  @DF-RKS Final Energy:   -56.53196385855530

   => Energetics <=

    Nuclear Repulsion Energy =             11.8399868854018493
    One-Electron Energy =                 -99.4943187951263752
    Two-Electron Energy =                  36.5468086968535033
    DFT Exchange-Correlation Energy =      -5.4663708807524349
    Empirical Dispersion Energy =           0.0000000000000000
    VV10 Nonlocal Energy =                  0.0419302350681615
    Total Energy =                        -56.5319638585553008

  Dipole Moment: [D]
     X:     1.0976      Y:     1.3190      Z:     0.0018     Total:     1.7159

  Vibration                       7                   8                   9
  Freq [cm^-1]                1121.9032           1453.0954           1678.5072
  Irrep                           Ap                 App                  Ap
  Reduced mass [u]              1.1760              1.0547              1.0622
  Force const [mDyne/A]         0.8721              1.3121              1.7632

  Vibration                       10                  11                  12
  Freq [cm^-1]                3474.2828           3538.1887           3595.3664
  Irrep                           Ap                 App                  Ap
  Reduced mass [u]              1.0303              1.0952              1.0872
  Force const [mDyne/A]         7.3271              8.0777              8.2806

  ==> Thermochemistry Components <==

  Entropy, S
    Electronic S            0.000 [cal/(mol K)]        0.000 [J/(mol K)]       0.00000000 [mEh/K] (multiplicity = 1)
    Translational S        34.441 [cal/(mol K)]      144.100 [J/(mol K)]       0.05488488 [mEh/K] (mol. weight = 17.0265 [u], P = 101325.00 [Pa])
    Rotational S           13.677 [cal/(mol K)]       57.224 [J/(mol K)]       0.02179536 [mEh/K] (symmetry no. = 1)
    Vibrational S           0.077 [cal/(mol K)]        0.322 [J/(mol K)]       0.00012248 [mEh/K]
  Total S                  48.194 [cal/(mol K)]      201.646 [J/(mol K)]       0.07680272 [mEh/K]
  Correction S              0.000 [cal/(mol K)]        0.000 [J/(mol K)]       0.00000000 [mEh/K]

  Constant volume heat capacity, Cv
    Electronic Cv           0.000 [cal/(mol K)]        0.000 [J/(mol K)]       0.00000000 [mEh/K]
    Translational Cv        2.981 [cal/(mol K)]       12.472 [J/(mol K)]       0.00475022 [mEh/K]
    Rotational Cv           2.981 [cal/(mol K)]       12.472 [J/(mol K)]       0.00475022 [mEh/K]
    Vibrational Cv          0.390 [cal/(mol K)]        1.630 [J/(mol K)]       0.00062088 [mEh/K]
  Total Cv                  6.351 [cal/(mol K)]       26.574 [J/(mol K)]       0.01012132 [mEh/K]
  Correction Cv             0.000 [cal/(mol K)]        0.000 [J/(mol K)]       0.00000000 [mEh/K]

  Constant pressure heat capacity, Cp
    Electronic Cp           0.000 [cal/(mol K)]        0.000 [J/(mol K)]       0.00000000 [mEh/K]
    Translational Cp        4.968 [cal/(mol K)]       20.786 [J/(mol K)]       0.00791703 [mEh/K]
    Rotational Cp           2.981 [cal/(mol K)]       12.472 [J/(mol K)]       0.00475022 [mEh/K]
    Vibrational Cp          0.390 [cal/(mol K)]        1.630 [J/(mol K)]       0.00062088 [mEh/K]
  Total Cp                  8.338 [cal/(mol K)]       34.888 [J/(mol K)]       0.01328813 [mEh/K]
  Correction Cp             0.000 [cal/(mol K)]        0.000 [J/(mol K)]       0.00000000 [mEh/K]

  ==> Thermochemistry Energy Analysis <==

  Raw electronic energy, E0
  Total E0, Electronic energy at well bottom at 0 [K]                  -56.53196606 [Eh]

  Zero-point energy, ZPE_vib = Sum_i nu_i / 2
    Electronic ZPE          0.000 [kcal/mol]        0.000 [kJ/mol]       0.00000000 [Eh]
    Translational ZPE       0.000 [kcal/mol]        0.000 [kJ/mol]       0.00000000 [Eh]
    Rotational ZPE          0.000 [kcal/mol]        0.000 [kJ/mol]       0.00000000 [Eh]
    Vibrational ZPE        21.245 [kcal/mol]       88.891 [kJ/mol]       0.03385663 [Eh]        7430.672 [cm^-1]
  Correction ZPE           21.245 [kcal/mol]       88.891 [kJ/mol]       0.03385663 [Eh]        7430.672 [cm^-1]
  Total ZPE, Electronic energy at 0 [K]                                -56.49810943 [Eh]

  Thermal Energy, E (includes ZPE)
    Electronic E            0.000 [kcal/mol]        0.000 [kJ/mol]       0.00000000 [Eh]
    Translational E         0.889 [kcal/mol]        3.718 [kJ/mol]       0.00141628 [Eh]
    Rotational E            0.889 [kcal/mol]        3.718 [kJ/mol]       0.00141628 [Eh]
    Vibrational E          21.265 [kcal/mol]       88.972 [kJ/mol]       0.03388780 [Eh]
  Correction E             23.042 [kcal/mol]       96.409 [kJ/mol]       0.03672035 [Eh]
  Total E, Electronic energy at  298.15 [K]                            -56.49524571 [Eh]

  Enthalpy, H_trans = E_trans + k_B * T
    Electronic H            0.000 [kcal/mol]        0.000 [kJ/mol]       0.00000000 [Eh]
    Translational H         1.481 [kcal/mol]        6.197 [kJ/mol]       0.00236046 [Eh]
    Rotational H            0.889 [kcal/mol]        3.718 [kJ/mol]       0.00141628 [Eh]
    Vibrational H          21.265 [kcal/mol]       88.972 [kJ/mol]       0.03388780 [Eh]
  Correction H             23.635 [kcal/mol]       98.888 [kJ/mol]       0.03766453 [Eh]
  Total H, Enthalpy at  298.15 [K]                                     -56.49430152 [Eh]

  Gibbs free energy, G = H - T * S
    Electronic G            0.000 [kcal/mol]        0.000 [kJ/mol]       0.00000000 [Eh]
    Translational G        -8.787 [kcal/mol]      -36.766 [kJ/mol]      -0.01400347 [Eh]
    Rotational G           -3.189 [kcal/mol]      -13.343 [kJ/mol]      -0.00508201 [Eh]
    Vibrational G          21.242 [kcal/mol]       88.877 [kJ/mol]       0.03385128 [Eh]
  Correction G              9.266 [kcal/mol]       38.768 [kJ/mol]       0.01476580 [Eh]
  Total G, Free enthalpy at  298.15 [K]                                -56.51720026 [Eh]

*** Psi4 exiting successfully. Buy a developer a beer!
