                               Psi4 1.3.2 release

  ==> Input File <==

--------------------------------------------------------------------------
memory 144 GB

molecule {
0 1
N 0.0000000000 0.0000000000 0.0000000000
N 0.0000000000 0.0000000000 1.1291000000
O 0.0000000000 -0.0000000000 2.3161000000
}

set dynamic_level 1
set basis cc-pV(D+d)Z

optimize("wB97X-V")
frequencies("wB97X-V")
--------------------------------------------------------------------------

    Molecular point group: c2v
  Charge       = 0
  Multiplicity = 1
  Basis Set: CC-PV(D+D)Z
    Blend: CC-PV(D+D)Z
  Basis Set: (CC-PV(D+D)Z AUX)
    Blend: CC-PVDZ-JKFIT
  @DF-RKS Final Energy:  -184.61729799322910
    Total Energy =                       -184.6172979932291298
    Molecular point group: c2v
  Basis Set: CC-PV(D+D)Z
    Blend: CC-PV(D+D)Z
  Basis Set: (CC-PV(D+D)Z AUX)
    Blend: CC-PVDZ-JKFIT
  @DF-RKS Final Energy:  -184.61728837047846
    Total Energy =                       -184.6172883704784624
  Basis Set: CC-PV(D+D)Z
    Blend: CC-PV(D+D)Z
  Basis Set: (CC-PV(D+D)Z AUX)
    Blend: CC-PVDZ-JKFIT
  @DF-RKS Final Energy:  -184.61730408044667
    Total Energy =                       -184.6173040804466723
  Basis Set: CC-PV(D+D)Z
    Blend: CC-PV(D+D)Z
  Basis Set: (CC-PV(D+D)Z AUX)
    Blend: CC-PVDZ-JKFIT
  @DF-RKS Final Energy:  -184.61729058539555
    Total Energy =                       -184.6172905853955797
  @DF-RKS Final Energy:  -184.61730165306156
    Total Energy =                       -184.6173016530615314
  @DF-RKS Final Energy:  -184.61732277864337
    Total Energy =                       -184.6173227786433699
  @DF-RKS Final Energy:  -184.61732096679546
    Total Energy =                       -184.6173209667954609
  @DF-RKS Final Energy:  -184.61732100999478
    Total Energy =                       -184.6173210099947823
  @DF-RKS Final Energy:  -184.61731888127954
    Total Energy =                       -184.6173188812795445
  @DF-RKS Final Energy:  -184.61732285048970
    Total Energy =                       -184.6173228504896997
  @DF-RKS Final Energy:  -184.61732347106818
    Total Energy =                       -184.6173234710681754
  @DF-RKS Final Energy:  -184.61732193222574
    Total Energy =                       -184.6173219322257353
  @DF-RKS Final Energy:  -184.61732142826520
    Total Energy =                       -184.6173214282651998
  @DF-RKS Final Energy:  -184.61732124084241
    Total Energy =                       -184.6173212408424149
  @DF-RKS Final Energy:  -184.61732186006304
    Total Energy =                       -184.6173218600630435
  **** Optimization is complete! (in 3 steps) ****
    Final optimized geometry and variables:
  @DF-RKS Final Energy:  -184.61732347072021
    Total Energy =                       -184.6173234707201800
  @DF-RKS Final Energy:  -184.61732193233232
    Total Energy =                       -184.6173219323323167
  @DF-RKS Final Energy:  -184.61732142844937
    Total Energy =                       -184.6173214284493724
  @DF-RKS Final Energy:  -184.61732124086419
    Total Energy =                       -184.6173212408642144
  @DF-RKS Final Energy:  -184.61732186011727
    Total Energy =                       -184.6173218601172437
  @DF-RKS Final Energy:  -184.61732347072041
    Total Energy =                       -184.6173234707204074
  @DF-RKS Final Energy:  -184.61732193233226
    Total Energy =                       -184.6173219323322598
  @DF-RKS Final Energy:  -184.61732142844932
    Total Energy =                       -184.6173214284492872
  @DF-RKS Final Energy:  -184.61732124086413
    Total Energy =                       -184.6173212408641291
  @DF-RKS Final Energy:  -184.61732186011727
    Total Energy =                       -184.6173218601172721
  Basis Set: CC-PV(D+D)Z
    Blend: CC-PV(D+D)Z
  Basis Set: (CC-PV(D+D)Z AUX)
    Blend: CC-PVDZ-JKFIT
  @DF-RKS Final Energy:  -184.61732171023743
    Total Energy =                       -184.6173217102374053
  Basis Set: CC-PV(D+D)Z
    Blend: CC-PV(D+D)Z
  Basis Set: (CC-PV(D+D)Z AUX)
    Blend: CC-PVDZ-JKFIT
  @DF-RKS Final Energy:  -184.61732159089797
    Total Energy =                       -184.6173215908979728
  Multiplicity = 1
  Basis Set: CC-PV(D+D)Z
    Blend: CC-PV(D+D)Z
  Basis Set: (CC-PV(D+D)Z AUX)
    Blend: CC-PVDZ-JKFIT
  @DF-RKS Final Energy:  -184.61732328638826
    Total Energy =                       -184.6173232863882845
    Molecular point group: cs

    Geometry (in Angstrom), charge = 0, multiplicity = 1:

       Center              X                  Y                   Z               Mass
    ------------   -----------------  -----------------  -----------------  -----------------
         N            0.000000000000    -0.000298631033    -1.198885270052    14.003074004430
         N            0.000000000000     0.000583045750    -0.071517890592    14.003074004430
         O            0.000000000000    -0.000248996661     1.112200339738    15.994914619570

  Charge       = 0
  Multiplicity = 1
  Basis Set: CC-PV(D+D)Z
    Blend: CC-PV(D+D)Z
  Basis Set: (CC-PV(D+D)Z AUX)
    Blend: CC-PVDZ-JKFIT

    Orbital Energies [Eh]
    ---------------------

    Doubly Occupied:

       1Ap   -19.317909     2Ap   -14.655032     3Ap   -14.518812
       4Ap    -1.378528     5Ap    -1.215126     6Ap    -0.712599
       1App   -0.680440     7Ap    -0.680440     8Ap    -0.585879
       2App   -0.435218     9Ap    -0.435218

  @DF-RKS Final Energy:  -184.61732328639005

   => Energetics <=

    Nuclear Repulsion Energy =             60.8573159643250960
    One-Electron Energy =                -371.0574566588016978
    Two-Electron Energy =                 141.3454604109613513
    DFT Exchange-Correlation Energy =     -15.8539554673260064
    Empirical Dispersion Energy =           0.0000000000000000
    VV10 Nonlocal Energy =                  0.0913124644512202
    Total Energy =                       -184.6173232863900466

  Dipole Moment: [D]
     X:     0.0000      Y:     0.0014      Z:    -0.1308     Total:     0.1308

  Vibration                       6                   7                   8
  Freq [cm^-1]                 624.2344            624.2374           1385.3379
  Irrep                           B2                  B1                  A1
  Reduced mass [u]             14.2545             14.2545             15.1111
  Force const [mDyne/A]         3.2726              3.2727             17.0867

  Vibration                       9
  Freq [cm^-1]                2434.1005
  Irrep                           A1
  Reduced mass [u]             14.0867
  Force const [mDyne/A]        49.1740

  ==> Thermochemistry Components <==

  Entropy, S
    Electronic S            0.000 [cal/(mol K)]        0.000 [J/(mol K)]       0.00000000 [mEh/K] (multiplicity = 1)
    Translational S        37.271 [cal/(mol K)]      155.941 [J/(mol K)]       0.05939493 [mEh/K] (mol. weight = 44.0011 [u], P = 101325.00 [Pa])
    Rotational S           14.303 [cal/(mol K)]       59.843 [J/(mol K)]       0.02279306 [mEh/K] (symmetry no. = 1)
    Vibrational S           0.839 [cal/(mol K)]        3.510 [J/(mol K)]       0.00133688 [mEh/K]
  Total S                  52.413 [cal/(mol K)]      219.295 [J/(mol K)]       0.08352487 [mEh/K]
  Correction S              0.000 [cal/(mol K)]        0.000 [J/(mol K)]       0.00000000 [mEh/K]

  Constant volume heat capacity, Cv
    Electronic Cv           0.000 [cal/(mol K)]        0.000 [J/(mol K)]       0.00000000 [mEh/K]
    Translational Cv        2.981 [cal/(mol K)]       12.472 [J/(mol K)]       0.00475022 [mEh/K]
    Rotational Cv           1.987 [cal/(mol K)]        8.314 [J/(mol K)]       0.00316681 [mEh/K]
    Vibrational Cv          2.075 [cal/(mol K)]        8.682 [J/(mol K)]       0.00330688 [mEh/K]
  Total Cv                  7.043 [cal/(mol K)]       29.468 [J/(mol K)]       0.01122391 [mEh/K]
  Correction Cv             0.000 [cal/(mol K)]        0.000 [J/(mol K)]       0.00000000 [mEh/K]

  Constant pressure heat capacity, Cp
    Electronic Cp           0.000 [cal/(mol K)]        0.000 [J/(mol K)]       0.00000000 [mEh/K]
    Translational Cp        4.968 [cal/(mol K)]       20.786 [J/(mol K)]       0.00791703 [mEh/K]
    Rotational Cp           1.987 [cal/(mol K)]        8.314 [J/(mol K)]       0.00316681 [mEh/K]
    Vibrational Cp          2.075 [cal/(mol K)]        8.682 [J/(mol K)]       0.00330688 [mEh/K]
  Total Cp                  9.030 [cal/(mol K)]       37.783 [J/(mol K)]       0.01439072 [mEh/K]
  Correction Cp             0.000 [cal/(mol K)]        0.000 [J/(mol K)]       0.00000000 [mEh/K]

  ==> Thermochemistry Energy Analysis <==

  Raw electronic energy, E0
  Total E0, Electronic energy at well bottom at 0 [K]                 -184.61732347 [Eh]

  Zero-point energy, ZPE_vib = Sum_i nu_i / 2
    Electronic ZPE          0.000 [kcal/mol]        0.000 [kJ/mol]       0.00000000 [Eh]
    Translational ZPE       0.000 [kcal/mol]        0.000 [kJ/mol]       0.00000000 [Eh]
    Rotational ZPE          0.000 [kcal/mol]        0.000 [kJ/mol]       0.00000000 [Eh]
    Vibrational ZPE         7.245 [kcal/mol]       30.313 [kJ/mol]       0.01154555 [Eh]        2533.955 [cm^-1]
  Correction ZPE            7.245 [kcal/mol]       30.313 [kJ/mol]       0.01154555 [Eh]        2533.955 [cm^-1]
  Total ZPE, Electronic energy at 0 [K]                               -184.60577792 [Eh]

  Thermal Energy, E (includes ZPE)
    Electronic E            0.000 [kcal/mol]        0.000 [kJ/mol]       0.00000000 [Eh]
    Translational E         0.889 [kcal/mol]        3.718 [kJ/mol]       0.00141628 [Eh]
    Rotational E            0.592 [kcal/mol]        2.479 [kJ/mol]       0.00094418 [Eh]
    Vibrational E           7.435 [kcal/mol]       31.106 [kJ/mol]       0.01184773 [Eh]
  Correction E              8.916 [kcal/mol]       37.304 [kJ/mol]       0.01420819 [Eh]
  Total E, Electronic energy at  298.15 [K]                           -184.60311528 [Eh]

  Enthalpy, H_trans = E_trans + k_B * T
    Electronic H            0.000 [kcal/mol]        0.000 [kJ/mol]       0.00000000 [Eh]
    Translational H         1.481 [kcal/mol]        6.197 [kJ/mol]       0.00236046 [Eh]
    Rotational H            0.592 [kcal/mol]        2.479 [kJ/mol]       0.00094418 [Eh]
    Vibrational H           7.435 [kcal/mol]       31.106 [kJ/mol]       0.01184773 [Eh]
  Correction H              9.508 [kcal/mol]       39.783 [kJ/mol]       0.01515238 [Eh]
  Total H, Enthalpy at  298.15 [K]                                    -184.60217109 [Eh]

  Gibbs free energy, G = H - T * S
    Electronic G            0.000 [kcal/mol]        0.000 [kJ/mol]       0.00000000 [Eh]
    Translational G        -9.631 [kcal/mol]      -40.297 [kJ/mol]      -0.01534814 [Eh]
    Rotational G           -3.672 [kcal/mol]      -15.363 [kJ/mol]      -0.00585157 [Eh]
    Vibrational G           7.184 [kcal/mol]       30.060 [kJ/mol]       0.01144914 [Eh]
  Correction G             -6.119 [kcal/mol]      -25.600 [kJ/mol]      -0.00975056 [Eh]
  Total G, Free enthalpy at  298.15 [K]                               -184.62707404 [Eh]

*** Psi4 exiting successfully. Buy a developer a beer!
