                               Psi4 1.3.2 release

  ==> Input File <==

--------------------------------------------------------------------------
memory 144 GB

molecule {
0 1
O 0.0000000000 0.0000000000 0.0000000000
C 0.0000000000 0.0000000000 1.1584320400
S 0.0000000000 0.0000000000 2.7252829900
}

set dynamic_level 1
set basis cc-pV(D+d)Z

optimize("wB97X-V")
frequencies("wB97X-V")
--------------------------------------------------------------------------

    Molecular point group: c2v
  Charge       = 0
  Multiplicity = 1
  Basis Set: CC-PV(D+D)Z
    Blend: CC-PV(D+D)Z
  Basis Set: (CC-PV(D+D)Z AUX)
    Blend: CC-PVDZ-JKFIT
  @DF-RKS Final Energy:  -511.45241323220330
    Total Energy =                       -511.4524132322032983
    Molecular point group: c2v
  Basis Set: CC-PV(D+D)Z
    Blend: CC-PV(D+D)Z
  Basis Set: (CC-PV(D+D)Z AUX)
    Blend: CC-PVDZ-JKFIT
  @DF-RKS Final Energy:  -511.45241336797818
    Total Energy =                       -511.4524133679781812
  Basis Set: CC-PV(D+D)Z
    Blend: CC-PV(D+D)Z
  Basis Set: (CC-PV(D+D)Z AUX)
    Blend: CC-PVDZ-JKFIT
  @DF-RKS Final Energy:  -511.45241071321431
    Total Energy =                       -511.4524107132142490
  Basis Set: CC-PV(D+D)Z
    Blend: CC-PV(D+D)Z
  Basis Set: (CC-PV(D+D)Z AUX)
    Blend: CC-PVDZ-JKFIT
  @DF-RKS Final Energy:  -511.45241202393203
    Total Energy =                       -511.4524120239320268
  @DF-RKS Final Energy:  -511.45241159185082
    Total Energy =                       -511.4524115918508755
  @DF-RKS Final Energy:  -511.45241412285299
    Total Energy =                       -511.4524141228529857
  @DF-RKS Final Energy:  -511.45241296387263
    Total Energy =                       -511.4524129638726890
  @DF-RKS Final Energy:  -511.45241290430448
    Total Energy =                       -511.4524129043044809
  @DF-RKS Final Energy:  -511.45241275548136
    Total Energy =                       -511.4524127554813049
  @DF-RKS Final Energy:  -511.45241265209654
    Total Energy =                       -511.4524126520965410
  **** Optimization is complete! (in 2 steps) ****
    Final optimized geometry and variables:
  @DF-RKS Final Energy:  -511.45241412285333
    Total Energy =                       -511.4524141228533267
  @DF-RKS Final Energy:  -511.45241296387320
    Total Energy =                       -511.4524129638732006
  @DF-RKS Final Energy:  -511.45241290430499
    Total Energy =                       -511.4524129043050493
  @DF-RKS Final Energy:  -511.45241275548096
    Total Energy =                       -511.4524127554809638
  @DF-RKS Final Energy:  -511.45241265209660
    Total Energy =                       -511.4524126520965979
  @DF-RKS Final Energy:  -511.45241412285287
    Total Energy =                       -511.4524141228528720
  @DF-RKS Final Energy:  -511.45241296387331
    Total Energy =                       -511.4524129638732575
  @DF-RKS Final Energy:  -511.45241290430499
    Total Energy =                       -511.4524129043049356
  @DF-RKS Final Energy:  -511.45241275548148
    Total Energy =                       -511.4524127554814754
  @DF-RKS Final Energy:  -511.45241265209648
    Total Energy =                       -511.4524126520965410
  Basis Set: CC-PV(D+D)Z
    Blend: CC-PV(D+D)Z
  Basis Set: (CC-PV(D+D)Z AUX)
    Blend: CC-PVDZ-JKFIT
  @DF-RKS Final Energy:  -511.45241325516605
    Total Energy =                       -511.4524132551660500
  Basis Set: CC-PV(D+D)Z
    Blend: CC-PV(D+D)Z
  Basis Set: (CC-PV(D+D)Z AUX)
    Blend: CC-PVDZ-JKFIT
  @DF-RKS Final Energy:  -511.45241341682180
    Total Energy =                       -511.4524134168216847
  Multiplicity = 1
  Basis Set: CC-PV(D+D)Z
    Blend: CC-PV(D+D)Z
  Basis Set: (CC-PV(D+D)Z AUX)
    Blend: CC-PVDZ-JKFIT
  @DF-RKS Final Energy:  -511.45241398756815
    Total Energy =                       -511.4524139875681499
    Molecular point group: cs

    Geometry (in Angstrom), charge = 0, multiplicity = 1:

       Center              X                  Y                   Z               Mass
    ------------   -----------------  -----------------  -----------------  -----------------
         O            0.000000000000    -0.000287225061    -1.685485328513    15.994914619570
         C            0.000000000000     0.000665858532    -0.526679824577    12.000000000000
         S            0.000000000000    -0.000106222773     1.040888206319    31.972071174400

  Charge       = 0
  Multiplicity = 1
  Basis Set: CC-PV(D+D)Z
    Blend: CC-PV(D+D)Z
  Basis Set: (CC-PV(D+D)Z AUX)
    Blend: CC-PVDZ-JKFIT

    Orbital Energies [Eh]
    ---------------------

    Doubly Occupied:

       1Ap   -88.903335     2Ap   -19.319702     3Ap   -10.456335
       4Ap    -8.072171     5Ap    -6.029379     1App   -6.021366
       6Ap    -6.021366     7Ap    -1.278192     8Ap    -0.952402
       9Ap    -0.668423    10Ap    -0.593468     2App   -0.593468
      11Ap    -0.576258     3App   -0.395824    12Ap    -0.395824

  @DF-RKS Final Energy:  -511.45241398759163

   => Energetics <=

    Nuclear Repulsion Energy =             79.1713223975444294
    One-Electron Energy =                -860.8264412172023867
    Two-Electron Energy =                 299.3565258628213996
    DFT Exchange-Correlation Energy =     -29.2784021906748784
    Empirical Dispersion Energy =           0.0000000000000000
    VV10 Nonlocal Energy =                  0.1245811599197528
    Total Energy =                       -511.4524139875916262

  Dipole Moment: [D]
     X:     0.0000      Y:     0.0011      Z:     0.3798     Total:     0.3798

  Vibration                       6                   7                   8
  Freq [cm^-1]                 534.7317            534.7781            903.5295
  Irrep                           B2                  B1                  A1
  Reduced mass [u]             13.0331             13.0331             19.6191
  Force const [mDyne/A]         2.1957              2.1961              9.4366

  Vibration                       9
  Freq [cm^-1]                2167.1410
  Irrep                           A1
  Reduced mass [u]             13.1350
  Force const [mDyne/A]        36.3459

  ==> Thermochemistry Components <==

  Entropy, S
    Electronic S            0.000 [cal/(mol K)]        0.000 [J/(mol K)]       0.00000000 [mEh/K] (multiplicity = 1)
    Translational S        38.194 [cal/(mol K)]      159.802 [J/(mol K)]       0.06086550 [mEh/K] (mol. weight = 59.9670 [u], P = 101325.00 [Pa])
    Rotational S           15.764 [cal/(mol K)]       65.956 [J/(mol K)]       0.02512150 [mEh/K] (symmetry no. = 1)
    Vibrational S           1.292 [cal/(mol K)]        5.404 [J/(mol K)]       0.00205845 [mEh/K]
  Total S                  55.249 [cal/(mol K)]      231.163 [J/(mol K)]       0.08804546 [mEh/K]
  Correction S              0.000 [cal/(mol K)]        0.000 [J/(mol K)]       0.00000000 [mEh/K]

  Constant volume heat capacity, Cv
    Electronic Cv           0.000 [cal/(mol K)]        0.000 [J/(mol K)]       0.00000000 [mEh/K]
    Translational Cv        2.981 [cal/(mol K)]       12.472 [J/(mol K)]       0.00475022 [mEh/K]
    Rotational Cv           1.987 [cal/(mol K)]        8.314 [J/(mol K)]       0.00316681 [mEh/K]
    Vibrational Cv          2.848 [cal/(mol K)]       11.915 [J/(mol K)]       0.00453823 [mEh/K]
  Total Cv                  7.816 [cal/(mol K)]       32.701 [J/(mol K)]       0.01245526 [mEh/K]
  Correction Cv             0.000 [cal/(mol K)]        0.000 [J/(mol K)]       0.00000000 [mEh/K]

  Constant pressure heat capacity, Cp
    Electronic Cp           0.000 [cal/(mol K)]        0.000 [J/(mol K)]       0.00000000 [mEh/K]
    Translational Cp        4.968 [cal/(mol K)]       20.786 [J/(mol K)]       0.00791703 [mEh/K]
    Rotational Cp           1.987 [cal/(mol K)]        8.314 [J/(mol K)]       0.00316681 [mEh/K]
    Vibrational Cp          2.848 [cal/(mol K)]       11.915 [J/(mol K)]       0.00453823 [mEh/K]
  Total Cp                  9.803 [cal/(mol K)]       41.016 [J/(mol K)]       0.01562207 [mEh/K]
  Correction Cp             0.000 [cal/(mol K)]        0.000 [J/(mol K)]       0.00000000 [mEh/K]

  ==> Thermochemistry Energy Analysis <==

  Raw electronic energy, E0
  Total E0, Electronic energy at well bottom at 0 [K]                 -511.45241412 [Eh]

  Zero-point energy, ZPE_vib = Sum_i nu_i / 2
    Electronic ZPE          0.000 [kcal/mol]        0.000 [kJ/mol]       0.00000000 [Eh]
    Translational ZPE       0.000 [kcal/mol]        0.000 [kJ/mol]       0.00000000 [Eh]
    Rotational ZPE          0.000 [kcal/mol]        0.000 [kJ/mol]       0.00000000 [Eh]
    Vibrational ZPE         5.919 [kcal/mol]       24.764 [kJ/mol]       0.00943202 [Eh]        2070.090 [cm^-1]
  Correction ZPE            5.919 [kcal/mol]       24.764 [kJ/mol]       0.00943202 [Eh]        2070.090 [cm^-1]
  Total ZPE, Electronic energy at 0 [K]                               -511.44298210 [Eh]

  Thermal Energy, E (includes ZPE)
    Electronic E            0.000 [kcal/mol]        0.000 [kJ/mol]       0.00000000 [Eh]
    Translational E         0.889 [kcal/mol]        3.718 [kJ/mol]       0.00141628 [Eh]
    Rotational E            0.592 [kcal/mol]        2.479 [kJ/mol]       0.00094418 [Eh]
    Vibrational E           6.203 [kcal/mol]       25.953 [kJ/mol]       0.00988487 [Eh]
  Correction E              7.684 [kcal/mol]       32.150 [kJ/mol]       0.01224533 [Eh]
  Total E, Electronic energy at  298.15 [K]                           -511.44016879 [Eh]

  Enthalpy, H_trans = E_trans + k_B * T
    Electronic H            0.000 [kcal/mol]        0.000 [kJ/mol]       0.00000000 [Eh]
    Translational H         1.481 [kcal/mol]        6.197 [kJ/mol]       0.00236046 [Eh]
    Rotational H            0.592 [kcal/mol]        2.479 [kJ/mol]       0.00094418 [Eh]
    Vibrational H           6.203 [kcal/mol]       25.953 [kJ/mol]       0.00988487 [Eh]
  Correction H              8.277 [kcal/mol]       34.629 [kJ/mol]       0.01318952 [Eh]
  Total H, Enthalpy at  298.15 [K]                                    -511.43922461 [Eh]

  Gibbs free energy, G = H - T * S
    Electronic G            0.000 [kcal/mol]        0.000 [kJ/mol]       0.00000000 [Eh]
    Translational G        -9.906 [kcal/mol]      -41.448 [kJ/mol]      -0.01578659 [Eh]
    Rotational G           -4.108 [kcal/mol]      -17.186 [kJ/mol]      -0.00654579 [Eh]
    Vibrational G           5.818 [kcal/mol]       24.341 [kJ/mol]       0.00927114 [Eh]
  Correction G             -8.196 [kcal/mol]      -34.292 [kJ/mol]      -0.01306124 [Eh]
  Total G, Free enthalpy at  298.15 [K]                               -511.46547536 [Eh]

*** Psi4 exiting successfully. Buy a developer a beer!
