                               Psi4 1.3.2 release

  ==> Input File <==

--------------------------------------------------------------------------
memory 144 GB

molecule {
0 1
P 0.0000000000 0.0000000000 -0.0679917919
H 1.1903431933 0.0000000000 0.6964572780
H -0.5951715967 -1.0308674445 0.6964572780
H -0.5951715967 1.0308674445 0.6964572780
}

set dynamic_level 1
set basis cc-pV(D+d)Z

optimize("wB97X-V")
frequencies("wB97X-V")
--------------------------------------------------------------------------

    Molecular point group: cs
  Charge       = 0
  Multiplicity = 1
  Basis Set: CC-PV(D+D)Z
    Blend: CC-PV(D+D)Z
  Basis Set: (CC-PV(D+D)Z AUX)
    Blend: CC-PVDZ-JKFIT
  @DF-RKS Final Energy:  -343.08567115098924
    Total Energy =                       -343.0856711509891852
    Molecular point group: cs
  Basis Set: CC-PV(D+D)Z
    Blend: CC-PV(D+D)Z
  Basis Set: (CC-PV(D+D)Z AUX)
    Blend: CC-PVDZ-JKFIT
  @DF-RKS Final Energy:  -343.08566877627169
    Total Energy =                       -343.0856687762716319
  Basis Set: CC-PV(D+D)Z
    Blend: CC-PV(D+D)Z
  Basis Set: (CC-PV(D+D)Z AUX)
    Blend: CC-PVDZ-JKFIT
  @DF-RKS Final Energy:  -343.08566920898051
    Total Energy =                       -343.0856692089804483
  Basis Set: CC-PV(D+D)Z
    Blend: CC-PV(D+D)Z
  Basis Set: (CC-PV(D+D)Z AUX)
    Blend: CC-PVDZ-JKFIT
  @DF-RKS Final Energy:  -343.08564953008653
    Total Energy =                       -343.0856495300865845
  @DF-RKS Final Energy:  -343.08569042279629
    Total Energy =                       -343.0856904227963469
  @DF-RKS Final Energy:  -343.08564654729940
    Total Energy =                       -343.0856465472994046
  @DF-RKS Final Energy:  -343.08569202835184
    Total Energy =                       -343.0856920283518434
  @DF-RKS Final Energy:  -343.08564657313707
    Total Energy =                       -343.0856465731370690
  @DF-RKS Final Energy:  -343.08569200224332
    Total Energy =                       -343.0856920022433769
  @DF-RKS Final Energy:  -343.08579359721585
    Total Energy =                       -343.0857935972159112
  @DF-RKS Final Energy:  -343.08579154198827
    Total Energy =                       -343.0857915419883284
  @DF-RKS Final Energy:  -343.08579151886920
    Total Energy =                       -343.0857915188692004
  @DF-RKS Final Energy:  -343.08579280113059
    Total Energy =                       -343.0857928011306512
  @DF-RKS Final Energy:  -343.08579210976740
    Total Energy =                       -343.0857921097674534
  @DF-RKS Final Energy:  -343.08579401201121
    Total Energy =                       -343.0857940120112062
  @DF-RKS Final Energy:  -343.08578960191528
    Total Energy =                       -343.0857896019152804
  @DF-RKS Final Energy:  -343.08579401603640
    Total Energy =                       -343.0857940160364592
  @DF-RKS Final Energy:  -343.08578959682541
    Total Energy =                       -343.0857895968254638
  @DF-RKS Final Energy:  -343.08579522184431
    Total Energy =                       -343.0857952218443074
  @DF-RKS Final Energy:  -343.08579315333265
    Total Energy =                       -343.0857931533326450
  **** Optimization is complete! (in 3 steps) ****
    Final optimized geometry and variables:
  @DF-RKS Final Energy:  -343.08579350271236
    Total Energy =                       -343.0857935027123062
  @DF-RKS Final Energy:  -343.08579335348537
    Total Energy =                       -343.0857933534853146
  @DF-RKS Final Energy:  -343.08579350161597
    Total Energy =                       -343.0857935016159104
  @DF-RKS Final Energy:  -343.08579335314369
    Total Energy =                       -343.0857933531436856
  @DF-RKS Final Energy:  -343.08579208350716
    Total Energy =                       -343.0857920835071013
  @DF-RKS Final Energy:  -343.08579191619333
    Total Energy =                       -343.0857919161933296
  @DF-RKS Final Energy:  -343.08578978584268
    Total Energy =                       -343.0857897858426213
  @DF-RKS Final Energy:  -343.08578990217001
    Total Energy =                       -343.0857899021699495
  @DF-RKS Final Energy:  -343.08579081694552
    Total Energy =                       -343.0857908169454618
  @DF-RKS Final Energy:  -343.08579078425578
    Total Energy =                       -343.0857907842558348
  @DF-RKS Final Energy:  -343.08579278533233
    Total Energy =                       -343.0857927853323304
  @DF-RKS Final Energy:  -343.08579294786909
    Total Energy =                       -343.0857929478690949
  @DF-RKS Final Energy:  -343.08579081580439
    Total Energy =                       -343.0857908158043870
  @DF-RKS Final Energy:  -343.08579078212637
    Total Energy =                       -343.0857907821264234
  @DF-RKS Final Energy:  -343.08579070744111
    Total Energy =                       -343.0857907074411060
  @DF-RKS Final Energy:  -343.08579099740598
    Total Energy =                       -343.0857909974059794
  Basis Set: CC-PV(D+D)Z
    Blend: CC-PV(D+D)Z
  Basis Set: (CC-PV(D+D)Z AUX)
    Blend: CC-PVDZ-JKFIT
  @DF-RKS Final Energy:  -343.08579314031761
    Total Energy =                       -343.0857931403176053
  Basis Set: CC-PV(D+D)Z
    Blend: CC-PV(D+D)Z
  Basis Set: (CC-PV(D+D)Z AUX)
    Blend: CC-PVDZ-JKFIT
  @DF-RKS Final Energy:  -343.08579309719960
    Total Energy =                       -343.0857930971995415
  Multiplicity = 1
  Basis Set: CC-PV(D+D)Z
    Blend: CC-PV(D+D)Z
  Basis Set: (CC-PV(D+D)Z AUX)
    Blend: CC-PVDZ-JKFIT
  @DF-RKS Final Energy:  -343.08579314777660
    Total Energy =                       -343.0857931477765419
    Molecular point group: c1

    Geometry (in Angstrom), charge = 0, multiplicity = 1:

       Center              X                  Y                   Z               Mass
    ------------   -----------------  -----------------  -----------------  -----------------
         P            0.000012183524     0.068512888493    -0.000107091947    30.973761998420
         H            0.597813126006    -0.703074501452     1.038417037765     1.007825032230
         H            0.600448715927    -0.700631852004    -1.037744459120     1.007825032230
         H           -1.198636281506    -0.701918962581     0.002618707418     1.007825032230

  Charge       = 0
  Multiplicity = 1
  Basis Set: CC-PV(D+D)Z
    Blend: CC-PV(D+D)Z
  Basis Set: (CC-PV(D+D)Z AUX)
    Blend: CC-PVDZ-JKFIT

    Orbital Energies [Eh]
    ---------------------

    Doubly Occupied:

       1A    -77.089016     2A     -6.658641     3A     -4.812546
       4A     -4.812545     5A     -4.807874     6A     -0.769274
       7A     -0.484877     8A     -0.484204     9A     -0.371702

  @DF-RKS Final Energy:  -343.08579314774272

   => Energetics <=

    Nuclear Repulsion Energy =             17.4776171225691286
    One-Electron Energy =                -508.3377257493373236
    Two-Electron Energy =                 165.7234643655319815
    DFT Exchange-Correlation Energy =     -18.0246031921329681
    Empirical Dispersion Energy =           0.0000000000000000
    VV10 Nonlocal Energy =                  0.0754543056264366
    Total Energy =                       -343.0857931477427769

  Dipole Moment: [D]
     X:     0.0002      Y:    -0.7794      Z:    -0.0027     Total:     0.7794

  Vibration                       7                   8                   9
  Freq [cm^-1]                1024.8426           1143.1127           1480.4726
  Irrep                           Ap                  Ap                 App
  Reduced mass [u]              1.0746              1.0255              1.0337
  Force const [mDyne/A]         0.6650              0.7895              1.3349

  Vibration                       10                  11                  12
  Freq [cm^-1]                2447.9173           2458.1230           2588.4079
  Irrep                           Ap                  Ap                 App
  Reduced mass [u]              1.0325              1.0410              1.0327
  Force const [mDyne/A]         3.6454              3.7061              4.0764

  ==> Thermochemistry Components <==

  Entropy, S
    Electronic S            0.000 [cal/(mol K)]        0.000 [J/(mol K)]       0.00000000 [mEh/K] (multiplicity = 1)
    Translational S        36.502 [cal/(mol K)]      152.724 [J/(mol K)]       0.05816968 [mEh/K] (mol. weight = 33.9972 [u], P = 101325.00 [Pa])
    Rotational S           15.713 [cal/(mol K)]       65.742 [J/(mol K)]       0.02503985 [mEh/K] (symmetry no. = 1)
    Vibrational S           0.150 [cal/(mol K)]        0.628 [J/(mol K)]       0.00023924 [mEh/K]
  Total S                  52.365 [cal/(mol K)]      219.095 [J/(mol K)]       0.08344878 [mEh/K]
  Correction S              0.000 [cal/(mol K)]        0.000 [J/(mol K)]       0.00000000 [mEh/K]

  Constant volume heat capacity, Cv
    Electronic Cv           0.000 [cal/(mol K)]        0.000 [J/(mol K)]       0.00000000 [mEh/K]
    Translational Cv        2.981 [cal/(mol K)]       12.472 [J/(mol K)]       0.00475022 [mEh/K]
    Rotational Cv           2.981 [cal/(mol K)]       12.472 [J/(mol K)]       0.00475022 [mEh/K]
    Vibrational Cv          0.681 [cal/(mol K)]        2.850 [J/(mol K)]       0.00108567 [mEh/K]
  Total Cv                  6.643 [cal/(mol K)]       27.794 [J/(mol K)]       0.01058610 [mEh/K]
  Correction Cv             0.000 [cal/(mol K)]        0.000 [J/(mol K)]       0.00000000 [mEh/K]

  Constant pressure heat capacity, Cp
    Electronic Cp           0.000 [cal/(mol K)]        0.000 [J/(mol K)]       0.00000000 [mEh/K]
    Translational Cp        4.968 [cal/(mol K)]       20.786 [J/(mol K)]       0.00791703 [mEh/K]
    Rotational Cp           2.981 [cal/(mol K)]       12.472 [J/(mol K)]       0.00475022 [mEh/K]
    Vibrational Cp          0.681 [cal/(mol K)]        2.850 [J/(mol K)]       0.00108567 [mEh/K]
  Total Cp                  8.630 [cal/(mol K)]       36.108 [J/(mol K)]       0.01375291 [mEh/K]
  Correction Cp             0.000 [cal/(mol K)]        0.000 [J/(mol K)]       0.00000000 [mEh/K]

  ==> Thermochemistry Energy Analysis <==

  Raw electronic energy, E0
  Total E0, Electronic energy at well bottom at 0 [K]                 -343.08579522 [Eh]

  Zero-point energy, ZPE_vib = Sum_i nu_i / 2
    Electronic ZPE          0.000 [kcal/mol]        0.000 [kJ/mol]       0.00000000 [Eh]
    Translational ZPE       0.000 [kcal/mol]        0.000 [kJ/mol]       0.00000000 [Eh]
    Rotational ZPE          0.000 [kcal/mol]        0.000 [kJ/mol]       0.00000000 [Eh]
    Vibrational ZPE        15.930 [kcal/mol]       66.649 [kJ/mol]       0.02538534 [Eh]        5571.438 [cm^-1]
  Correction ZPE           15.930 [kcal/mol]       66.649 [kJ/mol]       0.02538534 [Eh]        5571.438 [cm^-1]
  Total ZPE, Electronic energy at 0 [K]                               -343.06040988 [Eh]

  Thermal Energy, E (includes ZPE)
    Electronic E            0.000 [kcal/mol]        0.000 [kJ/mol]       0.00000000 [Eh]
    Translational E         0.889 [kcal/mol]        3.718 [kJ/mol]       0.00141628 [Eh]
    Rotational E            0.889 [kcal/mol]        3.718 [kJ/mol]       0.00141628 [Eh]
    Vibrational E          15.967 [kcal/mol]       66.807 [kJ/mol]       0.02544536 [Eh]
  Correction E             17.745 [kcal/mol]       74.244 [kJ/mol]       0.02827792 [Eh]
  Total E, Electronic energy at  298.15 [K]                           -343.05751731 [Eh]

  Enthalpy, H_trans = E_trans + k_B * T
    Electronic H            0.000 [kcal/mol]        0.000 [kJ/mol]       0.00000000 [Eh]
    Translational H         1.481 [kcal/mol]        6.197 [kJ/mol]       0.00236046 [Eh]
    Rotational H            0.889 [kcal/mol]        3.718 [kJ/mol]       0.00141628 [Eh]
    Vibrational H          15.967 [kcal/mol]       66.807 [kJ/mol]       0.02544536 [Eh]
  Correction H             18.337 [kcal/mol]       76.723 [kJ/mol]       0.02922210 [Eh]
  Total H, Enthalpy at  298.15 [K]                                    -343.05657312 [Eh]

  Gibbs free energy, G = H - T * S
    Electronic G            0.000 [kcal/mol]        0.000 [kJ/mol]       0.00000000 [Eh]
    Translational G        -9.402 [kcal/mol]      -39.337 [kJ/mol]      -0.01498283 [Eh]
    Rotational G           -3.796 [kcal/mol]      -15.883 [kJ/mol]      -0.00604935 [Eh]
    Vibrational G          15.922 [kcal/mol]       66.620 [kJ/mol]       0.02537403 [Eh]
  Correction G              2.725 [kcal/mol]       11.400 [kJ/mol]       0.00434185 [Eh]
  Total G, Free enthalpy at  298.15 [K]                               -343.08145337 [Eh]

*** Psi4 exiting successfully. Buy a developer a beer!
