                               Psi4 1.3.2 release

  ==> Input File <==

--------------------------------------------------------------------------
memory 144 GB

molecule {
0 1
Si 0.0000000000 0.0000000000 0.0000000000
O 0.0000000000 0.0000000000 1.5170406700
}

set dynamic_level 1
set basis cc-pV(D+d)Z

optimize("wB97X-V")
frequencies("wB97X-V")
--------------------------------------------------------------------------

    Molecular point group: c2v
  Charge       = 0
  Multiplicity = 1
  Basis Set: CC-PV(D+D)Z
    Blend: CC-PV(D+D)Z
  Basis Set: (CC-PV(D+D)Z AUX)
    Blend: CC-PVDZ-JKFIT
  @DF-RKS Final Energy:  -364.64620430303165
    Total Energy =                       -364.6462043030317091
    Molecular point group: c2v
  Basis Set: CC-PV(D+D)Z
    Blend: CC-PV(D+D)Z
  Basis Set: (CC-PV(D+D)Z AUX)
    Blend: CC-PVDZ-JKFIT
  @DF-RKS Final Energy:  -364.64619719926225
    Total Energy =                       -364.6461971992622466
  Basis Set: CC-PV(D+D)Z
    Blend: CC-PV(D+D)Z
  Basis Set: (CC-PV(D+D)Z AUX)
    Blend: CC-PVDZ-JKFIT
  @DF-RKS Final Energy:  -364.64620990616186
    Total Energy =                       -364.6462099061618574
  Basis Set: CC-PV(D+D)Z
    Blend: CC-PV(D+D)Z
  Basis Set: (CC-PV(D+D)Z AUX)
    Blend: CC-PVDZ-JKFIT
  @DF-RKS Final Energy:  -364.64621742762779
    Total Energy =                       -364.6462174276278461
  @DF-RKS Final Energy:  -364.64621579906361
    Total Energy =                       -364.6462157990636115
  @DF-RKS Final Energy:  -364.64621753078768
    Total Energy =                       -364.6462175307876805
  @DF-RKS Final Energy:  -364.64621767391441
    Total Energy =                       -364.6462176739144638
  @DF-RKS Final Energy:  -364.64621691738296
    Total Energy =                       -364.6462169173829579
  @DF-RKS Final Energy:  -364.64621690129576
    Total Energy =                       -364.6462169012958157
  **** Optimization is complete! (in 3 steps) ****
    Final optimized geometry and variables:
  @DF-RKS Final Energy:  -364.64621767391452
    Total Energy =                       -364.6462176739145207
  @DF-RKS Final Energy:  -364.64621691738273
    Total Energy =                       -364.6462169173827306
  Basis Set: CC-PV(D+D)Z
    Blend: CC-PV(D+D)Z
  Basis Set: (CC-PV(D+D)Z AUX)
    Blend: CC-PVDZ-JKFIT
  @DF-RKS Final Energy:  -364.64621690129570
    Total Energy =                       -364.6462169012957020
  Basis Set: CC-PV(D+D)Z
    Blend: CC-PV(D+D)Z
  Basis Set: (CC-PV(D+D)Z AUX)
    Blend: CC-PVDZ-JKFIT
  @DF-RKS Final Energy:  -364.64621767391429
    Total Energy =                       -364.6462176739142933
  Multiplicity = 1
  Basis Set: CC-PV(D+D)Z
    Blend: CC-PV(D+D)Z
  Basis Set: (CC-PV(D+D)Z AUX)
    Blend: CC-PVDZ-JKFIT
  @DF-RKS Final Energy:  -364.64621691738301
    Total Energy =                       -364.6462169173829579
    Molecular point group: c2v

    Geometry (in Angstrom), charge = 0, multiplicity = 1:

       Center              X                  Y                   Z               Mass
    ------------   -----------------  -----------------  -----------------  -----------------
         SI           0.000000000000     0.000000000000    -0.550260260607    27.976926534650
         O            0.000000000000     0.000000000000     0.962467837566    15.994914619570

  Charge       = 0
  Multiplicity = 1
  Basis Set: CC-PV(D+D)Z
    Blend: CC-PV(D+D)Z
  Basis Set: (CC-PV(D+D)Z AUX)
    Blend: CC-PVDZ-JKFIT

    Orbital Energies [Eh]
    ---------------------

    Doubly Occupied:

       1A1   -66.182649     2A1   -19.208318     3A1    -5.423163
       1B2    -3.774332     1B1    -3.774332     4A1    -3.768671
       5A1    -1.068041     6A1    -0.542986     2B1    -0.432092
       2B2    -0.432092     7A1    -0.405364

  @DF-RKS Final Energy:  -364.64621690129582

   => Energetics <=

    Nuclear Repulsion Energy =             39.1794451802900454
    One-Electron Energy =                -582.8299360765471420
    Two-Electron Energy =                 200.6976351947679689
    DFT Exchange-Correlation Energy =     -21.7864393778120728
    Empirical Dispersion Energy =           0.0000000000000000
    VV10 Nonlocal Energy =                  0.0930781780054326
    Total Energy =                       -364.6462169012958157

  Dipole Moment: [D]
     X:     0.0000      Y:     0.0000      Z:    -2.8306     Total:     2.8306

  Vibration                       6
  Freq [cm^-1]                1271.3329
  Irrep                           A1
  Reduced mass [u]             18.9466
  Force const [mDyne/A]        18.0426

  ==> Thermochemistry Components <==

  Entropy, S
    Electronic S            0.000 [cal/(mol K)]        0.000 [J/(mol K)]       0.00000000 [mEh/K] (multiplicity = 1)
    Translational S        37.269 [cal/(mol K)]      155.933 [J/(mol K)]       0.05939177 [mEh/K] (mol. weight = 43.9718 [u], P = 101325.00 [Pa])
    Rotational S           13.231 [cal/(mol K)]       55.358 [J/(mol K)]       0.02108471 [mEh/K] (symmetry no. = 1)
    Vibrational S           0.031 [cal/(mol K)]        0.129 [J/(mol K)]       0.00004903 [mEh/K]
  Total S                  50.531 [cal/(mol K)]      211.420 [J/(mol K)]       0.08052551 [mEh/K]
  Correction S              0.000 [cal/(mol K)]        0.000 [J/(mol K)]       0.00000000 [mEh/K]

  Constant volume heat capacity, Cv
    Electronic Cv           0.000 [cal/(mol K)]        0.000 [J/(mol K)]       0.00000000 [mEh/K]
    Translational Cv        2.981 [cal/(mol K)]       12.472 [J/(mol K)]       0.00475022 [mEh/K]
    Rotational Cv           1.987 [cal/(mol K)]        8.314 [J/(mol K)]       0.00316681 [mEh/K]
    Vibrational Cv          0.163 [cal/(mol K)]        0.681 [J/(mol K)]       0.00025925 [mEh/K]
  Total Cv                  5.131 [cal/(mol K)]       21.467 [J/(mol K)]       0.00817628 [mEh/K]
  Correction Cv             0.000 [cal/(mol K)]        0.000 [J/(mol K)]       0.00000000 [mEh/K]

  Constant pressure heat capacity, Cp
    Electronic Cp           0.000 [cal/(mol K)]        0.000 [J/(mol K)]       0.00000000 [mEh/K]
    Translational Cp        4.968 [cal/(mol K)]       20.786 [J/(mol K)]       0.00791703 [mEh/K]
    Rotational Cp           1.987 [cal/(mol K)]        8.314 [J/(mol K)]       0.00316681 [mEh/K]
    Vibrational Cp          0.163 [cal/(mol K)]        0.681 [J/(mol K)]       0.00025925 [mEh/K]
  Total Cp                  7.118 [cal/(mol K)]       29.781 [J/(mol K)]       0.01134309 [mEh/K]
  Correction Cp             0.000 [cal/(mol K)]        0.000 [J/(mol K)]       0.00000000 [mEh/K]

  ==> Thermochemistry Energy Analysis <==

  Raw electronic energy, E0
  Total E0, Electronic energy at well bottom at 0 [K]                 -364.64621767 [Eh]

  Zero-point energy, ZPE_vib = Sum_i nu_i / 2
    Electronic ZPE          0.000 [kcal/mol]        0.000 [kJ/mol]       0.00000000 [Eh]
    Translational ZPE       0.000 [kcal/mol]        0.000 [kJ/mol]       0.00000000 [Eh]
    Rotational ZPE          0.000 [kcal/mol]        0.000 [kJ/mol]       0.00000000 [Eh]
    Vibrational ZPE         1.817 [kcal/mol]        7.604 [kJ/mol]       0.00289631 [Eh]         635.666 [cm^-1]
  Correction ZPE            1.817 [kcal/mol]        7.604 [kJ/mol]       0.00289631 [Eh]         635.666 [cm^-1]
  Total ZPE, Electronic energy at 0 [K]                               -364.64332136 [Eh]

  Thermal Energy, E (includes ZPE)
    Electronic E            0.000 [kcal/mol]        0.000 [kJ/mol]       0.00000000 [Eh]
    Translational E         0.889 [kcal/mol]        3.718 [kJ/mol]       0.00141628 [Eh]
    Rotational E            0.592 [kcal/mol]        2.479 [kJ/mol]       0.00094418 [Eh]
    Vibrational E           1.825 [kcal/mol]        7.637 [kJ/mol]       0.00290888 [Eh]
  Correction E              3.307 [kcal/mol]       13.835 [kJ/mol]       0.00526934 [Eh]
  Total E, Electronic energy at  298.15 [K]                           -364.64094833 [Eh]

  Enthalpy, H_trans = E_trans + k_B * T
    Electronic H            0.000 [kcal/mol]        0.000 [kJ/mol]       0.00000000 [Eh]
    Translational H         1.481 [kcal/mol]        6.197 [kJ/mol]       0.00236046 [Eh]
    Rotational H            0.592 [kcal/mol]        2.479 [kJ/mol]       0.00094418 [Eh]
    Vibrational H           1.825 [kcal/mol]        7.637 [kJ/mol]       0.00290888 [Eh]
  Correction H              3.899 [kcal/mol]       16.314 [kJ/mol]       0.00621353 [Eh]
  Total H, Enthalpy at  298.15 [K]                                    -364.64000415 [Eh]

  Gibbs free energy, G = H - T * S
    Electronic G            0.000 [kcal/mol]        0.000 [kJ/mol]       0.00000000 [Eh]
    Translational G        -9.631 [kcal/mol]      -40.294 [kJ/mol]      -0.01534720 [Eh]
    Rotational G           -3.352 [kcal/mol]      -14.026 [kJ/mol]      -0.00534222 [Eh]
    Vibrational G           1.816 [kcal/mol]        7.599 [kJ/mol]       0.00289426 [Eh]
  Correction G            -11.167 [kcal/mol]      -46.721 [kJ/mol]      -0.01779515 [Eh]
  Total G, Free enthalpy at  298.15 [K]                               -364.66401283 [Eh]

*** Psi4 exiting successfully. Buy a developer a beer!
