                               Psi4 1.3.2 release

  ==> Input File <==

--------------------------------------------------------------------------
memory 144 GB

molecule {
0 1
S 0.0000000000 0.0000000000 0.0000000000
O 0.0000000000 0.0000000000 1.4355085900
O 1.2508167239 0.0000000000 -0.7043737894
}

set dynamic_level 1
set basis cc-pV(D+d)Z

optimize("wB97X-V")
frequencies("wB97X-V")
--------------------------------------------------------------------------

    Molecular point group: c2v
  Charge       = 0
  Multiplicity = 1
  Basis Set: CC-PV(D+D)Z
    Blend: CC-PV(D+D)Z
  Basis Set: (CC-PV(D+D)Z AUX)
    Blend: CC-PVDZ-JKFIT
  @DF-RKS Final Energy:  -548.50129603877383
    Total Energy =                       -548.5012960387738303
    Molecular point group: c2v
  Basis Set: CC-PV(D+D)Z
    Blend: CC-PV(D+D)Z
  Basis Set: (CC-PV(D+D)Z AUX)
    Blend: CC-PVDZ-JKFIT
  @DF-RKS Final Energy:  -548.50130413188572
    Total Energy =                       -548.5013041318856040
  Basis Set: CC-PV(D+D)Z
    Blend: CC-PV(D+D)Z
  Basis Set: (CC-PV(D+D)Z AUX)
    Blend: CC-PVDZ-JKFIT
  @DF-RKS Final Energy:  -548.50128717343080
    Total Energy =                       -548.5012871734306827
  Basis Set: CC-PV(D+D)Z
    Blend: CC-PV(D+D)Z
  Basis Set: (CC-PV(D+D)Z AUX)
    Blend: CC-PVDZ-JKFIT
  @DF-RKS Final Energy:  -548.50128598824699
    Total Energy =                       -548.5012859882469911
  @DF-RKS Final Energy:  -548.50130515814271
    Total Energy =                       -548.5013051581427135
  @DF-RKS Final Energy:  -548.50134831296259
    Total Energy =                       -548.5013483129624774
  @DF-RKS Final Energy:  -548.50135042776571
    Total Energy =                       -548.5013504277656011
  @DF-RKS Final Energy:  -548.50134543420404
    Total Energy =                       -548.5013454342040404
  @DF-RKS Final Energy:  -548.50134494333781
    Total Energy =                       -548.5013449433376991
  @DF-RKS Final Energy:  -548.50135076866218
    Total Energy =                       -548.5013507686620642
  @DF-RKS Final Energy:  -548.50135354352233
    Total Energy =                       -548.5013535435223275
  @DF-RKS Final Energy:  -548.50135323924883
    Total Energy =                       -548.5013532392489424
  @DF-RKS Final Energy:  -548.50135308866300
    Total Energy =                       -548.5013530886628814
  @DF-RKS Final Energy:  -548.50135308751555
    Total Energy =                       -548.5013530875156675
  @DF-RKS Final Energy:  -548.50135309410257
    Total Energy =                       -548.5013530941024555
  **** Optimization is complete! (in 3 steps) ****
    Final optimized geometry and variables:
  @DF-RKS Final Energy:  -548.50135354336192
    Total Energy =                       -548.5013535433620291
  @DF-RKS Final Energy:  -548.50135323921677
    Total Energy =                       -548.5013532392169964
  @DF-RKS Final Energy:  -548.50135308865015
    Total Energy =                       -548.5013530886500348
  @DF-RKS Final Energy:  -548.50135308737356
    Total Energy =                       -548.5013530873735590
  @DF-RKS Final Energy:  -548.50135309419852
    Total Energy =                       -548.5013530941985209
  @DF-RKS Final Energy:  -548.50135354336203
    Total Energy =                       -548.5013535433621428
  @DF-RKS Final Energy:  -548.50135323921722
    Total Energy =                       -548.5013532392171101
  @DF-RKS Final Energy:  -548.50135308865049
    Total Energy =                       -548.5013530886503759
  @DF-RKS Final Energy:  -548.50135308737367
    Total Energy =                       -548.5013530873736727
  Basis Set: CC-PV(D+D)Z
    Blend: CC-PV(D+D)Z
  Basis Set: (CC-PV(D+D)Z AUX)
    Blend: CC-PVDZ-JKFIT
  @DF-RKS Final Energy:  -548.50135309419875
    Total Energy =                       -548.5013530941987483
  Basis Set: CC-PV(D+D)Z
    Blend: CC-PV(D+D)Z
  Basis Set: (CC-PV(D+D)Z AUX)
    Blend: CC-PVDZ-JKFIT
  @DF-RKS Final Energy:  -548.50135319857395
    Total Energy =                       -548.5013531985739519
  Multiplicity = 1
  Basis Set: CC-PV(D+D)Z
    Blend: CC-PV(D+D)Z
  Basis Set: (CC-PV(D+D)Z AUX)
    Blend: CC-PVDZ-JKFIT
  @DF-RKS Final Energy:  -548.50135334341940
    Total Energy =                       -548.5013533434193960
    Molecular point group: cs

    Geometry (in Angstrom), charge = 0, multiplicity = 1:

       Center              X                  Y                   Z               Mass
    ------------   -----------------  -----------------  -----------------  -----------------
         S            0.000000000000    -0.000305708967    -0.364280489769    31.972071174400
         O            0.000000000000     1.242772979233     0.364257384959    15.994914619570
         O            0.000000000000    -1.242161900707     0.363899158753    15.994914619570

  Charge       = 0
  Multiplicity = 1
  Basis Set: CC-PV(D+D)Z
    Blend: CC-PV(D+D)Z
  Basis Set: (CC-PV(D+D)Z AUX)
    Blend: CC-PVDZ-JKFIT

    Orbital Energies [Eh]
    ---------------------

    Doubly Occupied:

       1Ap   -89.058203     2Ap   -19.276170     3Ap   -19.276001
       4Ap    -8.206159     1App   -6.161689     5Ap    -6.161395
       6Ap    -6.155590     7Ap    -1.275325     8Ap    -1.178725
       9Ap    -0.749764    10Ap    -0.602412     2App   -0.602359
      11Ap    -0.595349     3App   -0.465375    12Ap    -0.454729
      13Ap    -0.426021

  @DF-RKS Final Energy:  -548.50135258359546

   => Energetics <=

    Nuclear Repulsion Energy =            107.6907020173107412
    One-Electron Energy =                -969.5813679079066105
    Two-Electron Energy =                 344.9658631612518889
    DFT Exchange-Correlation Energy =     -31.7093740854069885
    Empirical Dispersion Energy =           0.0000000000000000
    VV10 Nonlocal Energy =                  0.1328242311555221
    Total Energy =                       -548.5013525835955761

  Dipole Moment: [D]
     X:     0.0000      Y:    -0.0059      Z:    -1.7607     Total:     1.7608

  Vibration                       7                   8                   9
  Freq [cm^-1]                 531.8409           1214.8974           1424.4004
  Irrep                           A1                  A1                  B2
  Reduced mass [u]             18.6239             17.9470             20.3314
  Force const [mDyne/A]         3.1037             15.6071             24.3043

  ==> Thermochemistry Components <==

  Entropy, S
    Electronic S            0.000 [cal/(mol K)]        0.000 [J/(mol K)]       0.00000000 [mEh/K] (multiplicity = 1)
    Translational S        38.386 [cal/(mol K)]      160.607 [J/(mol K)]       0.06117186 [mEh/K] (mol. weight = 63.9619 [u], P = 101325.00 [Pa])
    Rotational S           20.251 [cal/(mol K)]       84.730 [J/(mol K)]       0.03227180 [mEh/K] (symmetry no. = 2)
    Vibrational S           0.638 [cal/(mol K)]        2.670 [J/(mol K)]       0.00101702 [mEh/K]
  Total S                  59.275 [cal/(mol K)]      248.006 [J/(mol K)]       0.09446068 [mEh/K]
  Correction S              0.000 [cal/(mol K)]        0.000 [J/(mol K)]       0.00000000 [mEh/K]

  Constant volume heat capacity, Cv
    Electronic Cv           0.000 [cal/(mol K)]        0.000 [J/(mol K)]       0.00000000 [mEh/K]
    Translational Cv        2.981 [cal/(mol K)]       12.472 [J/(mol K)]       0.00475022 [mEh/K]
    Rotational Cv           2.981 [cal/(mol K)]       12.472 [J/(mol K)]       0.00475022 [mEh/K]
    Vibrational Cv          1.472 [cal/(mol K)]        6.160 [J/(mol K)]       0.00234616 [mEh/K]
  Total Cv                  7.434 [cal/(mol K)]       31.103 [J/(mol K)]       0.01184659 [mEh/K]
  Correction Cv             0.000 [cal/(mol K)]        0.000 [J/(mol K)]       0.00000000 [mEh/K]

  Constant pressure heat capacity, Cp
    Electronic Cp           0.000 [cal/(mol K)]        0.000 [J/(mol K)]       0.00000000 [mEh/K]
    Translational Cp        4.968 [cal/(mol K)]       20.786 [J/(mol K)]       0.00791703 [mEh/K]
    Rotational Cp           2.981 [cal/(mol K)]       12.472 [J/(mol K)]       0.00475022 [mEh/K]
    Vibrational Cp          1.472 [cal/(mol K)]        6.160 [J/(mol K)]       0.00234616 [mEh/K]
  Total Cp                  9.421 [cal/(mol K)]       39.418 [J/(mol K)]       0.01501340 [mEh/K]
  Correction Cp             0.000 [cal/(mol K)]        0.000 [J/(mol K)]       0.00000000 [mEh/K]

  ==> Thermochemistry Energy Analysis <==

  Raw electronic energy, E0
  Total E0, Electronic energy at well bottom at 0 [K]                 -548.50135354 [Eh]

  Zero-point energy, ZPE_vib = Sum_i nu_i / 2
    Electronic ZPE          0.000 [kcal/mol]        0.000 [kJ/mol]       0.00000000 [Eh]
    Translational ZPE       0.000 [kcal/mol]        0.000 [kJ/mol]       0.00000000 [Eh]
    Rotational ZPE          0.000 [kcal/mol]        0.000 [kJ/mol]       0.00000000 [Eh]
    Vibrational ZPE         4.533 [kcal/mol]       18.968 [kJ/mol]       0.00722439 [Eh]        1585.569 [cm^-1]
  Correction ZPE            4.533 [kcal/mol]       18.968 [kJ/mol]       0.00722439 [Eh]        1585.569 [cm^-1]
  Total ZPE, Electronic energy at 0 [K]                               -548.49412916 [Eh]

  Thermal Energy, E (includes ZPE)
    Electronic E            0.000 [kcal/mol]        0.000 [kJ/mol]       0.00000000 [Eh]
    Translational E         0.889 [kcal/mol]        3.718 [kJ/mol]       0.00141628 [Eh]
    Rotational E            0.889 [kcal/mol]        3.718 [kJ/mol]       0.00141628 [Eh]
    Vibrational E           4.674 [kcal/mol]       19.556 [kJ/mol]       0.00744849 [Eh]
  Correction E              6.451 [kcal/mol]       26.993 [kJ/mol]       0.01028105 [Eh]
  Total E, Electronic energy at  298.15 [K]                           -548.49107250 [Eh]

  Enthalpy, H_trans = E_trans + k_B * T
    Electronic H            0.000 [kcal/mol]        0.000 [kJ/mol]       0.00000000 [Eh]
    Translational H         1.481 [kcal/mol]        6.197 [kJ/mol]       0.00236046 [Eh]
    Rotational H            0.889 [kcal/mol]        3.718 [kJ/mol]       0.00141628 [Eh]
    Vibrational H           4.674 [kcal/mol]       19.556 [kJ/mol]       0.00744849 [Eh]
  Correction H              7.044 [kcal/mol]       29.472 [kJ/mol]       0.01122523 [Eh]
  Total H, Enthalpy at  298.15 [K]                                    -548.49012831 [Eh]

  Gibbs free energy, G = H - T * S
    Electronic G            0.000 [kcal/mol]        0.000 [kJ/mol]       0.00000000 [Eh]
    Translational G        -9.964 [kcal/mol]      -41.687 [kJ/mol]      -0.01587793 [Eh]
    Rotational G           -5.149 [kcal/mol]      -21.544 [kJ/mol]      -0.00820556 [Eh]
    Vibrational G           4.484 [kcal/mol]       18.760 [kJ/mol]       0.00714527 [Eh]
  Correction G            -10.629 [kcal/mol]      -44.471 [kJ/mol]      -0.01693822 [Eh]
  Total G, Free enthalpy at  298.15 [K]                               -548.51829176 [Eh]

*** Psi4 exiting successfully. Buy a developer a beer!
