                               Psi4 1.3.2 release

  ==> Input File <==

--------------------------------------------------------------------------
memory 144 GB

molecule {
0 1
C -0.0479167327 0.6682939561 0.0000000000
H -1.0907101856 0.9776732069 0.0000000000
H 0.4344161461 1.0815239129 0.8898543791
H 0.4344161461 1.0815239129 -0.8898543791
O -0.0410920225 -0.7509554452 0.0000000000
H 0.8712936485 -1.0420305436 0.0000000000
}

set dynamic_level 1
set basis cc-pV(D+d)Z

optimize("wB97X-V")
frequencies("wB97X-V")
--------------------------------------------------------------------------

    Molecular point group: cs
  Charge       = 0
  Multiplicity = 1
  Basis Set: CC-PV(D+D)Z
    Blend: CC-PV(D+D)Z
  Basis Set: (CC-PV(D+D)Z AUX)
    Blend: CC-PVDZ-JKFIT
  @DF-RKS Final Energy:  -115.68147834445790
    Total Energy =                       -115.6814783444579007
    Molecular point group: cs
  Basis Set: CC-PV(D+D)Z
    Blend: CC-PV(D+D)Z
  Basis Set: (CC-PV(D+D)Z AUX)
    Blend: CC-PVDZ-JKFIT
  @DF-RKS Final Energy:  -115.68147144846846
    Total Energy =                       -115.6814714484684572
  Basis Set: CC-PV(D+D)Z
    Blend: CC-PV(D+D)Z
  Basis Set: (CC-PV(D+D)Z AUX)
    Blend: CC-PVDZ-JKFIT
  @DF-RKS Final Energy:  -115.68148112760579
    Total Energy =                       -115.6814811276057782
  Basis Set: CC-PV(D+D)Z
    Blend: CC-PV(D+D)Z
  Basis Set: (CC-PV(D+D)Z AUX)
    Blend: CC-PVDZ-JKFIT
  @DF-RKS Final Energy:  -115.68150342266415
    Total Energy =                       -115.6815034226641359
  @DF-RKS Final Energy:  -115.68145160773528
    Total Energy =                       -115.6814516077352835
  @DF-RKS Final Energy:  -115.68152029155158
    Total Energy =                       -115.6815202915515783
  @DF-RKS Final Energy:  -115.68142844534707
    Total Energy =                       -115.6814284453470663
  @DF-RKS Final Energy:  -115.68147252645228
    Total Energy =                       -115.6814725264522679
  @DF-RKS Final Energy:  -115.68148187301912
    Total Energy =                       -115.6814818730191234
  @DF-RKS Final Energy:  -115.68144712867013
    Total Energy =                       -115.6814471286701291
  @DF-RKS Final Energy:  -115.68150714732573
    Total Energy =                       -115.6815071473257319
  @DF-RKS Final Energy:  -115.68145377810048
    Total Energy =                       -115.6814537781004617
  @DF-RKS Final Energy:  -115.68150080589724
    Total Energy =                       -115.6815008058972438
  @DF-RKS Final Energy:  -115.68142390632478
    Total Energy =                       -115.6814239063247811
  @DF-RKS Final Energy:  -115.68152593339383
    Total Energy =                       -115.6815259333938144
  @DF-RKS Final Energy:  -115.68151236059997
    Total Energy =                       -115.6815123605999673
  @DF-RKS Final Energy:  -115.68142951679754
    Total Energy =                       -115.6814295167975359
  @DF-RKS Final Energy:  -115.68195361519783
    Total Energy =                       -115.6819536151978269
  @DF-RKS Final Energy:  -115.68195348207816
    Total Energy =                       -115.6819534820781570
  @DF-RKS Final Energy:  -115.68194984485035
    Total Energy =                       -115.6819498448503367
  **** Optimization is complete! (in 4 steps) ****
    Final optimized geometry and variables:
  @DF-RKS Final Energy:  -115.68195769714302
    Total Energy =                       -115.6819576971430195
  @DF-RKS Final Energy:  -115.68195690175990
    Total Energy =                       -115.6819569017599036
  @DF-RKS Final Energy:  -115.68195558380556
    Total Energy =                       -115.6819555838055607
  @DF-RKS Final Energy:  -115.68195474820453
    Total Energy =                       -115.6819547482045323
  @DF-RKS Final Energy:  -115.68196349754521
    Total Energy =                       -115.6819634975452118
  @DF-RKS Final Energy:  -115.68196404011735
    Total Energy =                       -115.6819640401173643
  @DF-RKS Final Energy:  -115.68196436517255
    Total Energy =                       -115.6819643651725471
  @DF-RKS Final Energy:  -115.68196330930901
    Total Energy =                       -115.6819633093089976
  @DF-RKS Final Energy:  -115.68196087053362
    Total Energy =                       -115.6819608705336151
  @DF-RKS Final Energy:  -115.68196087052408
    Total Energy =                       -115.6819608705240796
  @DF-RKS Final Energy:  -115.68196431424052
    Total Energy =                       -115.6819643142405170
  @DF-RKS Final Energy:  -115.68196431421934
    Total Energy =                       -115.6819643142193570
  @DF-RKS Final Energy:  -115.68196487264558
    Total Energy =                       -115.6819648726455796
  @DF-RKS Final Energy:  -115.68196487270137
    Total Energy =                       -115.6819648727013714
  @DF-RKS Final Energy:  -115.68196410581523
    Total Energy =                       -115.6819641058152115
  @DF-RKS Final Energy:  -115.68196410582206
    Total Energy =                       -115.6819641058220611
  Basis Set: CC-PV(D+D)Z
    Blend: CC-PV(D+D)Z
  Basis Set: (CC-PV(D+D)Z AUX)
    Blend: CC-PVDZ-JKFIT
  @DF-RKS Final Energy:  -115.68196328395720
    Total Energy =                       -115.6819632839572023
  Basis Set: CC-PV(D+D)Z
    Blend: CC-PV(D+D)Z
  Basis Set: (CC-PV(D+D)Z AUX)
    Blend: CC-PVDZ-JKFIT
  @DF-RKS Final Energy:  -115.68196328400899
    Total Energy =                       -115.6819632840090009
  Multiplicity = 1
  Basis Set: CC-PV(D+D)Z
    Blend: CC-PV(D+D)Z
  Basis Set: (CC-PV(D+D)Z AUX)
    Blend: CC-PVDZ-JKFIT
  @DF-RKS Final Energy:  -115.68196004705358
    Total Energy =                       -115.6819600470535789
    Molecular point group: c1

    Geometry (in Angstrom), charge = 0, multiplicity = 1:

       Center              X                  Y                   Z               Mass
    ------------   -----------------  -----------------  -----------------  -----------------
         C           -0.030367773126     0.722181081576    -0.000000000000    12.000000000000
         H           -1.084271004413     1.040216186034    -0.000000000000     1.007825032230
         H            0.453054018969     1.152502861738     0.896940247130     1.007825032230
         H            0.455323669972     1.156316630708    -0.898972501270     1.007825032230
         O           -0.022881437852    -0.691467919481     0.000200953765    15.994914619570
         H            0.900622210831    -0.973824427717    -0.001157027945     1.007825032230

  Charge       = 0
  Multiplicity = 1
  Basis Set: CC-PV(D+D)Z
    Blend: CC-PV(D+D)Z
  Basis Set: (CC-PV(D+D)Z AUX)
    Blend: CC-PVDZ-JKFIT

    Orbital Energies [Eh]
    ---------------------

    Doubly Occupied:

       1A    -19.214686     2A    -10.321267     3A     -1.140065
       4A     -0.799835     5A     -0.610319     6A     -0.542035
       7A     -0.524706     8A     -0.432218     9A     -0.368759

  @DF-RKS Final Energy:  -115.68196004704150

   => Energetics <=

    Nuclear Repulsion Energy =             40.2339079692608692
    One-Electron Energy =                -236.8333531686161564
    Two-Electron Energy =                  91.5510608371078547
    DFT Exchange-Correlation Energy =     -10.7073177957560137
    Empirical Dispersion Energy =           0.0000000000000000
    VV10 Nonlocal Energy =                  0.0737421109619366
    Total Energy =                       -115.6819600470414997

  Dipole Moment: [D]
     X:     1.3560      Y:     0.8450      Z:     0.0011     Total:     1.5978

  Vibration                       7                   8                   9
  Freq [cm^-1]                 331.8492           1075.0337           1121.6360
  Irrep                          App                  Ap                  Ap
  Reduced mass [u]              1.0691              1.1722              4.6941
  Force const [mDyne/A]         0.0694              0.7982              3.4794

  Vibration                       10                  11                  12
  Freq [cm^-1]                1166.4563           1386.5580           1475.7629
  Irrep                          App                  Ap                  Ap
  Reduced mass [u]              1.2821              1.2872              1.1403
  Force const [mDyne/A]         1.0278              1.4581              1.4632

  Vibration                       13                  14                  15
  Freq [cm^-1]                1477.5481           1494.5640           3010.8267
  Irrep                          App                  Ap                  Ap
  Reduced mass [u]              1.0430              1.0558              1.0375
  Force const [mDyne/A]         1.3416              1.3895              5.5410

  Vibration                       16                  17                  18
  Freq [cm^-1]                3068.9514           3149.9311           3849.2478
  Irrep                          App                  Ap                  Ap
  Reduced mass [u]              1.1058              1.0990              1.0665
  Force const [mDyne/A]         6.1360              6.4248              9.3100

  ==> Thermochemistry Components <==

  Entropy, S
    Electronic S            0.000 [cal/(mol K)]        0.000 [J/(mol K)]       0.00000000 [mEh/K] (multiplicity = 1)
    Translational S        36.324 [cal/(mol K)]      151.980 [J/(mol K)]       0.05788598 [mEh/K] (mol. weight = 32.0262 [u], P = 101325.00 [Pa])
    Rotational S           18.997 [cal/(mol K)]       79.482 [J/(mol K)]       0.03027313 [mEh/K] (symmetry no. = 1)
    Vibrational S           1.482 [cal/(mol K)]        6.199 [J/(mol K)]       0.00236124 [mEh/K]
  Total S                  56.802 [cal/(mol K)]      237.661 [J/(mol K)]       0.09052035 [mEh/K]
  Correction S              0.000 [cal/(mol K)]        0.000 [J/(mol K)]       0.00000000 [mEh/K]

  Constant volume heat capacity, Cv
    Electronic Cv           0.000 [cal/(mol K)]        0.000 [J/(mol K)]       0.00000000 [mEh/K]
    Translational Cv        2.981 [cal/(mol K)]       12.472 [J/(mol K)]       0.00475022 [mEh/K]
    Rotational Cv           2.981 [cal/(mol K)]       12.472 [J/(mol K)]       0.00475022 [mEh/K]
    Vibrational Cv          2.754 [cal/(mol K)]       11.522 [J/(mol K)]       0.00438854 [mEh/K]
  Total Cv                  8.715 [cal/(mol K)]       36.465 [J/(mol K)]       0.01388897 [mEh/K]
  Correction Cv             0.000 [cal/(mol K)]        0.000 [J/(mol K)]       0.00000000 [mEh/K]

  Constant pressure heat capacity, Cp
    Electronic Cp           0.000 [cal/(mol K)]        0.000 [J/(mol K)]       0.00000000 [mEh/K]
    Translational Cp        4.968 [cal/(mol K)]       20.786 [J/(mol K)]       0.00791703 [mEh/K]
    Rotational Cp           2.981 [cal/(mol K)]       12.472 [J/(mol K)]       0.00475022 [mEh/K]
    Vibrational Cp          2.754 [cal/(mol K)]       11.522 [J/(mol K)]       0.00438854 [mEh/K]
  Total Cp                 10.703 [cal/(mol K)]       44.780 [J/(mol K)]       0.01705578 [mEh/K]
  Correction Cp             0.000 [cal/(mol K)]        0.000 [J/(mol K)]       0.00000000 [mEh/K]

  ==> Thermochemistry Energy Analysis <==

  Raw electronic energy, E0
  Total E0, Electronic energy at well bottom at 0 [K]                 -115.68196535 [Eh]

  Zero-point energy, ZPE_vib = Sum_i nu_i / 2
    Electronic ZPE          0.000 [kcal/mol]        0.000 [kJ/mol]       0.00000000 [Eh]
    Translational ZPE       0.000 [kcal/mol]        0.000 [kJ/mol]       0.00000000 [Eh]
    Rotational ZPE          0.000 [kcal/mol]        0.000 [kJ/mol]       0.00000000 [Eh]
    Vibrational ZPE        32.320 [kcal/mol]      135.228 [kJ/mol]       0.05150565 [Eh]       11304.182 [cm^-1]
  Correction ZPE           32.320 [kcal/mol]      135.228 [kJ/mol]       0.05150565 [Eh]       11304.182 [cm^-1]
  Total ZPE, Electronic energy at 0 [K]                               -115.63045970 [Eh]

  Thermal Energy, E (includes ZPE)
    Electronic E            0.000 [kcal/mol]        0.000 [kJ/mol]       0.00000000 [Eh]
    Translational E         0.889 [kcal/mol]        3.718 [kJ/mol]       0.00141628 [Eh]
    Rotational E            0.889 [kcal/mol]        3.718 [kJ/mol]       0.00141628 [Eh]
    Vibrational E          32.618 [kcal/mol]      136.475 [kJ/mol]       0.05198076 [Eh]
  Correction E             34.396 [kcal/mol]      143.912 [kJ/mol]       0.05481331 [Eh]
  Total E, Electronic energy at  298.15 [K]                           -115.62715204 [Eh]

  Enthalpy, H_trans = E_trans + k_B * T
    Electronic H            0.000 [kcal/mol]        0.000 [kJ/mol]       0.00000000 [Eh]
    Translational H         1.481 [kcal/mol]        6.197 [kJ/mol]       0.00236046 [Eh]
    Rotational H            0.889 [kcal/mol]        3.718 [kJ/mol]       0.00141628 [Eh]
    Vibrational H          32.618 [kcal/mol]      136.475 [kJ/mol]       0.05198076 [Eh]
  Correction H             34.988 [kcal/mol]      146.391 [kJ/mol]       0.05575750 [Eh]
  Total H, Enthalpy at  298.15 [K]                                    -115.62620785 [Eh]

  Gibbs free energy, G = H - T * S
    Electronic G            0.000 [kcal/mol]        0.000 [kJ/mol]       0.00000000 [Eh]
    Translational G        -9.349 [kcal/mol]      -39.115 [kJ/mol]      -0.01489824 [Eh]
    Rotational G           -4.775 [kcal/mol]      -19.979 [kJ/mol]      -0.00760966 [Eh]
    Vibrational G          32.177 [kcal/mol]      134.627 [kJ/mol]       0.05127675 [Eh]
  Correction G             18.053 [kcal/mol]       75.533 [kJ/mol]       0.02876885 [Eh]
  Total G, Free enthalpy at  298.15 [K]                               -115.65319650 [Eh]

*** Psi4 exiting successfully. Buy a developer a beer!
