                               Psi4 1.3.2 release

  ==> Input File <==

--------------------------------------------------------------------------
memory 144 GB

molecule {
0 3
S 0.0000000000 0.0000000000 0.0000000000
S 0.0000000000 0.0000000000 1.8968845900
}

set reference uks
set dynamic_level 1
set basis cc-pV(D+d)Z

optimize("wB97X-V")
frequencies("wB97X-V")
--------------------------------------------------------------------------

    Molecular point group: d2h
  Charge       = 0
  Multiplicity = 3
  Basis Set: CC-PV(D+D)Z
    Blend: CC-PV(D+D)Z
  Basis Set: (CC-PV(D+D)Z AUX)
    Blend: CC-PVDZ-JKFIT
  @DF-UKS Final Energy:  -796.24733630236005
    Total Energy =                       -796.2473363023599404
    Molecular point group: d2h
  Basis Set: CC-PV(D+D)Z
    Blend: CC-PV(D+D)Z
  Basis Set: (CC-PV(D+D)Z AUX)
    Blend: CC-PVDZ-JKFIT
  @DF-UKS Final Energy:  -796.24732534463419
    Total Energy =                       -796.2473253446341914
  Basis Set: CC-PV(D+D)Z
    Blend: CC-PV(D+D)Z
  Basis Set: (CC-PV(D+D)Z AUX)
    Blend: CC-PVDZ-JKFIT
  @DF-UKS Final Energy:  -796.24734671231693
    Total Energy =                       -796.2473467123170394
  Basis Set: CC-PV(D+D)Z
    Blend: CC-PV(D+D)Z
  Basis Set: (CC-PV(D+D)Z AUX)
    Blend: CC-PVDZ-JKFIT
  @DF-UKS Final Energy:  -796.24743066009489
    Total Energy =                       -796.2474306600948921
  @DF-UKS Final Energy:  -796.24742737869803
    Total Energy =                       -796.2474273786980348
  @DF-UKS Final Energy:  -796.24743336943311
    Total Energy =                       -796.2474333694329971
  @DF-UKS Final Energy:  -796.24743845600358
    Total Energy =                       -796.2474384560034650
  @DF-UKS Final Energy:  -796.24743825674477
    Total Energy =                       -796.2474382567449993
  @DF-UKS Final Energy:  -796.24743807338814
    Total Energy =                       -796.2474380733881389
  **** Optimization is complete! (in 3 steps) ****
    Final optimized geometry and variables:
  @DF-UKS Final Energy:  -796.24743845600369
    Total Energy =                       -796.2474384560035787
  @DF-UKS Final Energy:  -796.24743825674477
    Total Energy =                       -796.2474382567447719
  Basis Set: CC-PV(D+D)Z
    Blend: CC-PV(D+D)Z
  Basis Set: (CC-PV(D+D)Z AUX)
    Blend: CC-PVDZ-JKFIT
  @DF-UKS Final Energy:  -796.24743807338814
    Total Energy =                       -796.2474380733881389
  Basis Set: CC-PV(D+D)Z
    Blend: CC-PV(D+D)Z
  Basis Set: (CC-PV(D+D)Z AUX)
    Blend: CC-PVDZ-JKFIT
  @DF-UKS Final Energy:  -796.24743845600392
    Total Energy =                       -796.2474384560040335
  Multiplicity = 3
  Basis Set: CC-PV(D+D)Z
    Blend: CC-PV(D+D)Z
  Basis Set: (CC-PV(D+D)Z AUX)
    Blend: CC-PVDZ-JKFIT
  @DF-UKS Final Energy:  -796.24743825674432
    Total Energy =                       -796.2474382567445446
    Molecular point group: d2h

    Geometry (in Angstrom), charge = 0, multiplicity = 3:

       Center              X                  Y                   Z               Mass
    ------------   -----------------  -----------------  -----------------  -----------------
         S            0.000000000000     0.000000000000    -0.941794426569    31.972071174400
         S            0.000000000000     0.000000000000     0.941794426569    31.972071174400

  Charge       = 0
  Multiplicity = 3
  Basis Set: CC-PV(D+D)Z
    Blend: CC-PV(D+D)Z
  Basis Set: (CC-PV(D+D)Z AUX)
    Blend: CC-PVDZ-JKFIT

    Orbital Energies [Eh]
    ---------------------

    Alpha Occupied:

       1Ag   -88.924762     1B1u  -88.924762     2Ag    -8.091151
       2B1u   -8.091094     3Ag    -6.045396     1B3u   -6.044631
       1B2u   -6.044631     1B2g   -6.044580     1B3g   -6.044580
       3B1u   -6.044547     4Ag    -0.977929     4B1u   -0.753942
       5Ag    -0.500905     2B2u   -0.489270     2B3u   -0.489270
       2B3g   -0.339844     2B2g   -0.339844

    Alpha Virtual:

       5B1u    0.095534     6Ag     0.364570     3B3u    0.443982
       3B2u    0.443982     6B1u    0.543469     1B1g    0.546826
       7Ag     0.546827     8Ag     0.550011     4B2u    0.569578
       4B3u    0.569578     3B3g    0.605929     3B2g    0.605929
       1Au     0.645105     7B1u    0.645106     8B1u    0.788221
       9Ag     0.877792     4B2g    0.879182     4B3g    0.879182
       9B1u    1.252618     5B3u    4.417214     5B2u    4.417214
      10Ag     4.457055     2B1g    4.457080    10B1u    4.514138
       2Au     4.514163    11Ag     4.593744     5B2g    4.656869
       5B3g    4.656869    11B1u    4.822775

    Beta Occupied:

       1Ag   -88.919335     1B1u  -88.919333     2Ag    -8.085903
       2B1u   -8.085773     3Ag    -6.041951     3B1u   -6.041091
       1B3u   -6.033578     1B2u   -6.033578     1B2g   -6.033508
       1B3g   -6.033508     4Ag    -0.948285     4B1u   -0.686703
       5Ag    -0.475460     2B2u   -0.424773     2B3u   -0.424773

    Beta Virtual:

       2B3g   -0.050987     2B2g   -0.050987     5B1u    0.114962
       6Ag     0.375085     3B3u    0.474570     3B2u    0.474570
       6B1u    0.555013     7Ag     0.564456     1B1g    0.592857
       8Ag     0.592858     4B2u    0.598586     4B3u    0.598586
       3B3g    0.632930     3B2g    0.632930     1Au     0.703976
       7B1u    0.703978     8B1u    0.807752     9Ag     0.895901
       4B2g    0.907814     4B3g    0.907814     9B1u    1.271801
       5B3u    4.420898     5B2u    4.420898    10Ag     4.464449
       2B1g    4.464476    10B1u    4.522886     2Au     4.522913
      11Ag     4.596639     5B2g    4.661819     5B3g    4.661819
      11B1u    4.826783

    Final Occupation by Irrep:
             Ag   B1g   B2g   B3g    Au   B1u   B2u   B3u
    DOCC [     5,    0,    1,    1,    0,    4,    2,    2 ]
    SOCC [     0,    0,    1,    1,    0,    0,    0,    0 ]

  @DF-UKS Final Energy:  -796.24743807338848

   => Energetics <=

    Nuclear Repulsion Energy =             71.9208789677679761
    One-Electron Energy =               -1242.5394616706712441
    Two-Electron Energy =                 412.9837824422455697
    DFT Exchange-Correlation Energy =     -38.7463347641098181
    Empirical Dispersion Energy =           0.0000000000000000
    VV10 Nonlocal Energy =                  0.1336969513791359
    Total Energy =                       -796.2474380733884800

  UHF NO Occupations:
  HONO-2 :    2B3u 1.9982017
  HONO-1 :    2B2g 1.0000000
  HONO-0 :    2B3g 1.0000000
  LUNO+0 :    3B3u 0.0017983
  LUNO+1 :    3B2u 0.0017983
  LUNO+2 :    5B1u 0.0006921
  LUNO+3 :    6 Ag 0.0003410

Computation Completed

Properties will be evaluated at   0.000000,   0.000000,   0.000000 [a0]

Properties computed using the SCF density matrix

  Nuclear Dipole Moment: [e a0]
     X:     0.0000      Y:     0.0000      Z:     0.0000

  Electronic Dipole Moment: [e a0]
     X:     0.0000      Y:     0.0000      Z:     0.0000

  Dipole Moment: [e a0]
     X:     0.0000      Y:     0.0000      Z:     0.0000     Total:     0.0000

  Dipole Moment: [D]
     X:     0.0000      Y:     0.0000      Z:     0.0000     Total:     0.0000

*** tstop() called on bp1-compute00116.data.bp.acrc.priv at Tue Apr 27 18:09:05 2021
Module time:
	user time   =      78.07 seconds =       1.30 minutes
	system time =       4.03 seconds =       0.07 minutes
	total time  =          3 seconds =       0.05 minutes
Total time:
	user time   =     981.24 seconds =      16.35 minutes
	system time =      50.69 seconds =       0.84 minutes
	total time  =         43 seconds =       0.72 minutes

         ----------------------------------------------------------
                                   FINDIF
                     R. A. King and Jonathon Misiewicz
         ---------------------------------------------------------

  Computing second-derivative from energies using projected,
  symmetry-adapted, cartesian coordinates.

  3 energies passed in, including the reference geometry.
    Using 3-point formula.
    Energy without displacement: -796.2474384560
    Check energies below for precision!
    0: -1 :      -796.2474382567
    0: 1  :      -796.2474380734

-------------------------------------------------------------

  ==> Harmonic Vibrational Analysis <==

  non-mass-weighted Hessian:       Symmetric? True   Hermitian? True   Lin Dep Dim?  5 (0)
  projection of translations (True) and rotations (True) removed 5 degrees of freedom (5)
  total projector:                 Symmetric? True   Hermitian? True   Lin Dep Dim?  5 (5)
  mass-weighted Hessian:           Symmetric? True   Hermitian? True   Lin Dep Dim?  5 (0)
  pre-proj  low-frequency mode:    0.0000  [cm^-1]
  pre-proj  low-frequency mode:    0.0000  [cm^-1]
  pre-proj  low-frequency mode:    0.0000  [cm^-1]
  pre-proj  low-frequency mode:    0.0000  [cm^-1]
  pre-proj  low-frequency mode:    0.0000  [cm^-1]
  pre-proj  all modes:['0.0000' '0.0000' '0.0000' '0.0000' '0.0000' '784.2403']
  projected mass-weighted Hessian: Symmetric? True   Hermitian? True   Lin Dep Dim?  5 (5)
  post-proj low-frequency mode:    0.0000i [cm^-1] (TR)
  post-proj low-frequency mode:    0.0000  [cm^-1] (TR)
  post-proj low-frequency mode:    0.0000  [cm^-1] (TR)
  post-proj low-frequency mode:    0.0000  [cm^-1] (TR)
  post-proj low-frequency mode:    0.0000  [cm^-1] (TR)
  post-proj  all modes:['0.0000i' '0.0000' '0.0000' '0.0000' '0.0000' '784.2403']

  Vibration                       6
  Freq [cm^-1]                 784.2403
  Irrep                           Ag
  Reduced mass [u]             31.9721
  Force const [mDyne/A]        11.5856
  Turning point v=0 [a0]        0.0693
  RMS dev v=0 [a0 u^1/2]        0.2771
  Char temp [K]               1128.3472
  ----------------------------------------------------------------------------------
      1   S                0.00  0.00  0.71
      2   S                0.00  0.00 -0.71

  ==> Thermochemistry Components <==

  Entropy, S
    Electronic S            2.183 [cal/(mol K)]        9.134 [J/(mol K)]       0.00347910 [mEh/K] (multiplicity = 3)
    Translational S        38.385 [cal/(mol K)]      160.603 [J/(mol K)]       0.06117054 [mEh/K] (mol. weight = 63.9441 [u], P = 101325.00 [Pa])
    Rotational S           13.622 [cal/(mol K)]       56.993 [J/(mol K)]       0.02170731 [mEh/K] (symmetry no. = 2)
    Vibrational S           0.221 [cal/(mol K)]        0.923 [J/(mol K)]       0.00035141 [mEh/K]
  Total S                  54.410 [cal/(mol K)]      227.653 [J/(mol K)]       0.08670836 [mEh/K]
  Correction S              0.000 [cal/(mol K)]        0.000 [J/(mol K)]       0.00000000 [mEh/K]

  Constant volume heat capacity, Cv
    Electronic Cv           0.000 [cal/(mol K)]        0.000 [J/(mol K)]       0.00000000 [mEh/K]
    Translational Cv        2.981 [cal/(mol K)]       12.472 [J/(mol K)]       0.00475022 [mEh/K]
    Rotational Cv           1.987 [cal/(mol K)]        8.314 [J/(mol K)]       0.00316681 [mEh/K]
    Vibrational Cv          0.677 [cal/(mol K)]        2.833 [J/(mol K)]       0.00107898 [mEh/K]
  Total Cv                  5.645 [cal/(mol K)]       23.619 [J/(mol K)]       0.00899601 [mEh/K]
  Correction Cv             0.000 [cal/(mol K)]        0.000 [J/(mol K)]       0.00000000 [mEh/K]

  Constant pressure heat capacity, Cp
    Electronic Cp           0.000 [cal/(mol K)]        0.000 [J/(mol K)]       0.00000000 [mEh/K]
    Translational Cp        4.968 [cal/(mol K)]       20.786 [J/(mol K)]       0.00791703 [mEh/K]
    Rotational Cp           1.987 [cal/(mol K)]        8.314 [J/(mol K)]       0.00316681 [mEh/K]
    Vibrational Cp          0.677 [cal/(mol K)]        2.833 [J/(mol K)]       0.00107898 [mEh/K]
  Total Cp                  7.632 [cal/(mol K)]       31.933 [J/(mol K)]       0.01216282 [mEh/K]
  Correction Cp             0.000 [cal/(mol K)]        0.000 [J/(mol K)]       0.00000000 [mEh/K]

  ==> Thermochemistry Energy Analysis <==

  Raw electronic energy, E0
  Total E0, Electronic energy at well bottom at 0 [K]                 -796.24743846 [Eh]

  Zero-point energy, ZPE_vib = Sum_i nu_i / 2
    Electronic ZPE          0.000 [kcal/mol]        0.000 [kJ/mol]       0.00000000 [Eh]
    Translational ZPE       0.000 [kcal/mol]        0.000 [kJ/mol]       0.00000000 [Eh]
    Rotational ZPE          0.000 [kcal/mol]        0.000 [kJ/mol]       0.00000000 [Eh]
    Vibrational ZPE         1.121 [kcal/mol]        4.691 [kJ/mol]       0.00178663 [Eh]         392.120 [cm^-1]
  Correction ZPE            1.121 [kcal/mol]        4.691 [kJ/mol]       0.00178663 [Eh]         392.120 [cm^-1]
  Total ZPE, Electronic energy at 0 [K]                               -796.24565183 [Eh]

  Thermal Energy, E (includes ZPE)
    Electronic E            0.000 [kcal/mol]        0.000 [kJ/mol]       0.00000000 [Eh]
    Translational E         0.889 [kcal/mol]        3.718 [kJ/mol]       0.00141628 [Eh]
    Rotational E            0.592 [kcal/mol]        2.479 [kJ/mol]       0.00094418 [Eh]
    Vibrational E           1.173 [kcal/mol]        4.909 [kJ/mol]       0.00186970 [Eh]
  Correction E              2.654 [kcal/mol]       11.106 [kJ/mol]       0.00423017 [Eh]
  Total E, Electronic energy at  298.15 [K]                           -796.24320829 [Eh]

  Enthalpy, H_trans = E_trans + k_B * T
    Electronic H            0.000 [kcal/mol]        0.000 [kJ/mol]       0.00000000 [Eh]
    Translational H         1.481 [kcal/mol]        6.197 [kJ/mol]       0.00236046 [Eh]
    Rotational H            0.592 [kcal/mol]        2.479 [kJ/mol]       0.00094418 [Eh]
    Vibrational H           1.173 [kcal/mol]        4.909 [kJ/mol]       0.00186970 [Eh]
  Correction H              3.247 [kcal/mol]       13.585 [kJ/mol]       0.00517435 [Eh]
  Total H, Enthalpy at  298.15 [K]                                    -796.24226411 [Eh]

  Gibbs free energy, G = H - T * S
    Electronic G           -0.651 [kcal/mol]       -2.723 [kJ/mol]      -0.00103729 [Eh]
    Translational G        -9.963 [kcal/mol]      -41.686 [kJ/mol]      -0.01587754 [Eh]
    Rotational G           -3.469 [kcal/mol]      -14.513 [kJ/mol]      -0.00552785 [Eh]
    Vibrational G           1.108 [kcal/mol]        4.634 [kJ/mol]       0.00176493 [Eh]
  Correction G            -12.975 [kcal/mol]      -54.289 [kJ/mol]      -0.02067775 [Eh]
  Total G, Free enthalpy at  298.15 [K]                               -796.26811620 [Eh]

    Psi4 stopped on: Tuesday, 27 April 2021 06:09PM
    Psi4 wall time for execution: 0:00:43.89

*** Psi4 exiting successfully. Buy a developer a beer!
