                               Psi4 1.3.2 release

  ==> Input File <==

--------------------------------------------------------------------------
memory 144 GB

molecule {
0 3
S 0.0000000000 0.0000000000 0.0000000000
O 0.0000000000 0.0000000000 1.4862145500
}

set reference uks
set dynamic_level 1
set basis cc-pV(D+d)Z

optimize("wB97X-V")
frequencies("wB97X-V")
--------------------------------------------------------------------------

    Molecular point group: c2v
  Charge       = 0
  Multiplicity = 3
  Basis Set: CC-PV(D+D)Z
    Blend: CC-PV(D+D)Z
  Basis Set: (CC-PV(D+D)Z AUX)
    Blend: CC-PVDZ-JKFIT
  @DF-UKS Final Energy:  -473.27448133024177
    Total Energy =                       -473.2744813302417697
    Molecular point group: c2v
  Basis Set: CC-PV(D+D)Z
    Blend: CC-PV(D+D)Z
  Basis Set: (CC-PV(D+D)Z AUX)
    Blend: CC-PVDZ-JKFIT
  @DF-UKS Final Energy:  -473.27449653941818
    Total Energy =                       -473.2744965394182373
  Basis Set: CC-PV(D+D)Z
    Blend: CC-PV(D+D)Z
  Basis Set: (CC-PV(D+D)Z AUX)
    Blend: CC-PVDZ-JKFIT
  @DF-UKS Final Energy:  -473.27446471365403
    Total Energy =                       -473.2744647136541403
  Basis Set: CC-PV(D+D)Z
    Blend: CC-PV(D+D)Z
  Basis Set: (CC-PV(D+D)Z AUX)
    Blend: CC-PVDZ-JKFIT
  @DF-UKS Final Energy:  -473.27456567558716
    Total Energy =                       -473.2745656755871551
  @DF-UKS Final Energy:  -473.27456940714313
    Total Energy =                       -473.2745694071431330
  @DF-UKS Final Energy:  -473.27456059019249
    Total Energy =                       -473.2745605901925501
  @DF-UKS Final Energy:  -473.27457287934504
    Total Energy =                       -473.2745728793449871
  @DF-UKS Final Energy:  -473.27457232865942
    Total Energy =                       -473.2745723286593034
  @DF-UKS Final Energy:  -473.27457209573947
    Total Energy =                       -473.2745720957394155
  **** Optimization is complete! (in 3 steps) ****
    Final optimized geometry and variables:
  @DF-UKS Final Energy:  -473.27457287934487
    Total Energy =                       -473.2745728793448166
  @DF-UKS Final Energy:  -473.27457232865959
    Total Energy =                       -473.2745723286596444
  Basis Set: CC-PV(D+D)Z
    Blend: CC-PV(D+D)Z
  Basis Set: (CC-PV(D+D)Z AUX)
    Blend: CC-PVDZ-JKFIT
  @DF-UKS Final Energy:  -473.27457209576778
    Total Energy =                       -473.2745720957677804
  Basis Set: CC-PV(D+D)Z
    Blend: CC-PV(D+D)Z
  Basis Set: (CC-PV(D+D)Z AUX)
    Blend: CC-PVDZ-JKFIT
  @DF-UKS Final Energy:  -473.27457287934465
    Total Energy =                       -473.2745728793446460
  Multiplicity = 3
  Basis Set: CC-PV(D+D)Z
    Blend: CC-PV(D+D)Z
  Basis Set: (CC-PV(D+D)Z AUX)
    Blend: CC-PVDZ-JKFIT
  @DF-UKS Final Energy:  -473.27457232865959
    Total Energy =                       -473.2745723286595876
    Molecular point group: c2v

    Geometry (in Angstrom), charge = 0, multiplicity = 3:

       Center              X                  Y                   Z               Mass
    ------------   -----------------  -----------------  -----------------  -----------------
         S            0.000000000000     0.000000000000    -0.498432303406    31.972071174400
         O            0.000000000000     0.000000000000     0.996311231359    15.994914619570

  Charge       = 0
  Multiplicity = 3
  Basis Set: CC-PV(D+D)Z
    Blend: CC-PV(D+D)Z
  Basis Set: (CC-PV(D+D)Z AUX)
    Blend: CC-PVDZ-JKFIT

    Orbital Energies [Eh]
    ---------------------

    Alpha Occupied:

       1A1   -88.958522     2A1   -19.297568     3A1    -8.121942
       4A1    -6.076609     1B1    -6.075664     1B2    -6.075664
       5A1    -1.218321     6A1    -0.805425     2B2    -0.564860
       2B1    -0.564860     7A1    -0.556166     3B1    -0.357619
       3B2    -0.357619

    Alpha Virtual:

       8A1     0.116893     9A1     0.542560     4B1     0.547019
       4B2     0.547019     1A2     0.570240    10A1     0.570240
      11A1     0.589261     5B1     0.637791     5B2     0.637791
      12A1     0.857508     6B2     1.076586     6B1     1.076586
      13A1     1.161745    14A1     1.736747    15A1     2.632995
       2A2     2.632998     7B2     2.761672     7B1     2.761672
      16A1     3.280336     3A2     4.459769    17A1     4.459772
       8B1     4.555564     8B2     4.555564    18A1     4.679524

    Beta Occupied:

       1A1   -88.952401     2A1   -19.277983     3A1    -8.115931
       4A1    -6.072945     1B2    -6.062974     1B1    -6.062974
       5A1    -1.174139     6A1    -0.733001     7A1    -0.521304
       2B1    -0.483643     2B2    -0.483643

    Beta Virtual:

       3B1    -0.025290     3B2    -0.025290     8A1     0.139202
       9A1     0.561865     4B2     0.570433     4B1     0.570433
      10A1     0.600483    11A1     0.631585     1A2     0.631586
       5B1     0.686559     5B2     0.686559    12A1     0.878971
       6B1     1.118603     6B2     1.118603    13A1     1.184907
      14A1     1.762889    15A1     2.696919     2A2     2.696920
       7B1     2.799059     7B2     2.799059    16A1     3.312169
       3A2     4.469696    17A1     4.469702     8B1     4.561780
       8B2     4.561780    18A1     4.684592

    Final Occupation by Irrep:
             A1    A2    B1    B2
    DOCC [     7,    0,    2,    2 ]
    SOCC [     0,    0,    1,    1 ]

  @DF-UKS Final Energy:  -473.27457209576801

   => Energetics <=

    Nuclear Repulsion Energy =             45.3152540154013579
    One-Electron Energy =                -742.8769824905120913
    Two-Electron Energy =                 249.6817530691464526
    DFT Exchange-Correlation Energy =     -25.4955309410645157
    Empirical Dispersion Energy =           0.0000000000000000
    VV10 Nonlocal Energy =                  0.1009342512607873
    Total Energy =                       -473.2745720957680078

  UHF NO Occupations:
  HONO-2 :    2 B2 1.9984114
  HONO-1 :    3 B1 1.0000000
  HONO-0 :    3 B2 1.0000000
  LUNO+0 :    4 B2 0.0015886
  LUNO+1 :    4 B1 0.0015886
  LUNO+2 :    8 A1 0.0008048
  LUNO+3 :    9 A1 0.0002089

Computation Completed

Properties will be evaluated at   0.000000,   0.000000,   0.000000 [a0]

Properties computed using the SCF density matrix

  Nuclear Dipole Moment: [e a0]
     X:     0.0000      Y:     0.0000      Z:    -0.0084

  Electronic Dipole Moment: [e a0]
     X:     0.0000      Y:     0.0000      Z:    -0.6204

  Dipole Moment: [e a0]
     X:     0.0000      Y:     0.0000      Z:    -0.6288     Total:     0.6288

  Dipole Moment: [D]
     X:     0.0000      Y:     0.0000      Z:    -1.5981     Total:     1.5981

*** tstop() called on bp1-compute00107.data.bp.acrc.priv at Tue Apr 27 18:08:44 2021
Module time:
	user time   =      89.98 seconds =       1.50 minutes
	system time =       4.47 seconds =       0.07 minutes
	total time  =          4 seconds =       0.07 minutes
Total time:
	user time   =    1096.34 seconds =      18.27 minutes
	system time =      56.90 seconds =       0.95 minutes
	total time  =         49 seconds =       0.82 minutes

         ----------------------------------------------------------
                                   FINDIF
                     R. A. King and Jonathon Misiewicz
         ---------------------------------------------------------

  Computing second-derivative from energies using projected,
  symmetry-adapted, cartesian coordinates.

  3 energies passed in, including the reference geometry.
    Using 3-point formula.
    Energy without displacement: -473.2745728793
    Check energies below for precision!
    0: -1 :      -473.2745723287
    0: 1  :      -473.2745720958

-------------------------------------------------------------

  ==> Harmonic Vibrational Analysis <==

  non-mass-weighted Hessian:       Symmetric? True   Hermitian? True   Lin Dep Dim?  5 (0)
  projection of translations (True) and rotations (True) removed 5 degrees of freedom (5)
  total projector:                 Symmetric? True   Hermitian? True   Lin Dep Dim?  5 (5)
  mass-weighted Hessian:           Symmetric? True   Hermitian? True   Lin Dep Dim?  5 (0)
  pre-proj  low-frequency mode:    0.0000  [cm^-1]
  pre-proj  low-frequency mode:    0.0000  [cm^-1]
  pre-proj  low-frequency mode:    0.0000  [cm^-1]
  pre-proj  low-frequency mode:    0.0000  [cm^-1]
  pre-proj  low-frequency mode:    0.0000  [cm^-1]
  pre-proj  all modes:['0.0000' '0.0000' '0.0000' '0.0000' '0.0000' '1187.5579']
  projected mass-weighted Hessian: Symmetric? True   Hermitian? True   Lin Dep Dim?  5 (5)
  post-proj low-frequency mode:    0.0000  [cm^-1] (TR)
  post-proj low-frequency mode:    0.0000  [cm^-1] (TR)
  post-proj low-frequency mode:    0.0000  [cm^-1] (TR)
  post-proj low-frequency mode:    0.0000  [cm^-1] (TR)
  post-proj low-frequency mode:    0.0000  [cm^-1] (TR)
  post-proj  all modes:['0.0000' '0.0000' '0.0000' '0.0000' '0.0000' '1187.5579']

  Vibration                       6
  Freq [cm^-1]                1187.5579
  Irrep                           A1
  Reduced mass [u]             19.1932
  Force const [mDyne/A]        15.9480
  Turning point v=0 [a0]        0.0727
  RMS dev v=0 [a0 u^1/2]        0.2251
  Char temp [K]               1708.6314
  ----------------------------------------------------------------------------------
      1   S                0.00  0.00 -0.45
      2   O                0.00  0.00  0.89

  ==> Thermochemistry Components <==

  Entropy, S
    Electronic S            2.183 [cal/(mol K)]        9.134 [J/(mol K)]       0.00347910 [mEh/K] (multiplicity = 3)
    Translational S        37.528 [cal/(mol K)]      157.018 [J/(mol K)]       0.05980487 [mEh/K] (mol. weight = 47.9670 [u], P = 101325.00 [Pa])
    Rotational S           13.276 [cal/(mol K)]       55.546 [J/(mol K)]       0.02115624 [mEh/K] (symmetry no. = 1)
    Vibrational S           0.044 [cal/(mol K)]        0.182 [J/(mol K)]       0.00006937 [mEh/K]
  Total S                  53.031 [cal/(mol K)]      221.880 [J/(mol K)]       0.08450957 [mEh/K]
  Correction S              0.000 [cal/(mol K)]        0.000 [J/(mol K)]       0.00000000 [mEh/K]

  Constant volume heat capacity, Cv
    Electronic Cv           0.000 [cal/(mol K)]        0.000 [J/(mol K)]       0.00000000 [mEh/K]
    Translational Cv        2.981 [cal/(mol K)]       12.472 [J/(mol K)]       0.00475022 [mEh/K]
    Rotational Cv           1.987 [cal/(mol K)]        8.314 [J/(mol K)]       0.00316681 [mEh/K]
    Vibrational Cv          0.213 [cal/(mol K)]        0.892 [J/(mol K)]       0.00033965 [mEh/K]
  Total Cv                  5.181 [cal/(mol K)]       21.678 [J/(mol K)]       0.00825667 [mEh/K]
  Correction Cv             0.000 [cal/(mol K)]        0.000 [J/(mol K)]       0.00000000 [mEh/K]

  Constant pressure heat capacity, Cp
    Electronic Cp           0.000 [cal/(mol K)]        0.000 [J/(mol K)]       0.00000000 [mEh/K]
    Translational Cp        4.968 [cal/(mol K)]       20.786 [J/(mol K)]       0.00791703 [mEh/K]
    Rotational Cp           1.987 [cal/(mol K)]        8.314 [J/(mol K)]       0.00316681 [mEh/K]
    Vibrational Cp          0.213 [cal/(mol K)]        0.892 [J/(mol K)]       0.00033965 [mEh/K]
  Total Cp                  7.168 [cal/(mol K)]       29.992 [J/(mol K)]       0.01142348 [mEh/K]
  Correction Cp             0.000 [cal/(mol K)]        0.000 [J/(mol K)]       0.00000000 [mEh/K]

  ==> Thermochemistry Energy Analysis <==

  Raw electronic energy, E0
  Total E0, Electronic energy at well bottom at 0 [K]                 -473.27457288 [Eh]

  Zero-point energy, ZPE_vib = Sum_i nu_i / 2
    Electronic ZPE          0.000 [kcal/mol]        0.000 [kJ/mol]       0.00000000 [Eh]
    Translational ZPE       0.000 [kcal/mol]        0.000 [kJ/mol]       0.00000000 [Eh]
    Rotational ZPE          0.000 [kcal/mol]        0.000 [kJ/mol]       0.00000000 [Eh]
    Vibrational ZPE         1.698 [kcal/mol]        7.103 [kJ/mol]       0.00270546 [Eh]         593.779 [cm^-1]
  Correction ZPE            1.698 [kcal/mol]        7.103 [kJ/mol]       0.00270546 [Eh]         593.779 [cm^-1]
  Total ZPE, Electronic energy at 0 [K]                               -473.27186742 [Eh]

  Thermal Energy, E (includes ZPE)
    Electronic E            0.000 [kcal/mol]        0.000 [kJ/mol]       0.00000000 [Eh]
    Translational E         0.889 [kcal/mol]        3.718 [kJ/mol]       0.00141628 [Eh]
    Rotational E            0.592 [kcal/mol]        2.479 [kJ/mol]       0.00094418 [Eh]
    Vibrational E           1.709 [kcal/mol]        7.149 [kJ/mol]       0.00272307 [Eh]
  Correction E              3.190 [kcal/mol]       13.347 [kJ/mol]       0.00508353 [Eh]
  Total E, Electronic energy at  298.15 [K]                           -473.26948935 [Eh]

  Enthalpy, H_trans = E_trans + k_B * T
    Electronic H            0.000 [kcal/mol]        0.000 [kJ/mol]       0.00000000 [Eh]
    Translational H         1.481 [kcal/mol]        6.197 [kJ/mol]       0.00236046 [Eh]
    Rotational H            0.592 [kcal/mol]        2.479 [kJ/mol]       0.00094418 [Eh]
    Vibrational H           1.709 [kcal/mol]        7.149 [kJ/mol]       0.00272307 [Eh]
  Correction H              3.782 [kcal/mol]       15.826 [kJ/mol]       0.00602771 [Eh]
  Total H, Enthalpy at  298.15 [K]                                    -473.26854516 [Eh]

  Gibbs free energy, G = H - T * S
    Electronic G           -0.651 [kcal/mol]       -2.723 [kJ/mol]      -0.00103729 [Eh]
    Translational G        -9.708 [kcal/mol]      -40.617 [kJ/mol]      -0.01547036 [Eh]
    Rotational G           -3.366 [kcal/mol]      -14.082 [kJ/mol]      -0.00536355 [Eh]
    Vibrational G           1.696 [kcal/mol]        7.095 [kJ/mol]       0.00270239 [Eh]
  Correction G            -12.029 [kcal/mol]      -50.328 [kJ/mol]      -0.01916881 [Eh]
  Total G, Free enthalpy at  298.15 [K]                               -473.29374169 [Eh]

    Psi4 stopped on: Tuesday, 27 April 2021 06:08PM
    Psi4 wall time for execution: 0:00:49.15

*** Psi4 exiting successfully. Buy a developer a beer!
