                               Psi4 1.3.2 release

  ==> Input File <==

--------------------------------------------------------------------------
memory 144 GB

molecule {
0 1
B     0.000025702137  -0.000052552589  -0.198407020528
H    -0.399622606768  -1.029858472420   0.215550091991
H    -0.171134703482   0.990434479161   0.419174884486
H     0.570731623988   0.039476540557  -1.230190221591}

set basis aug-cc-pV(Q+d)Z
set dynamic_level 1

optimize("WB97M-V")
frequencies("WB97M-V")
--------------------------------------------------------------------------

    Molecular point group: c1
  Charge       = 0
  Multiplicity = 1
  Basis Set: AUG-CC-PV(Q+D)Z
    Blend: AUG-CC-PV(Q+D)Z
  Basis Set: (AUG-CC-PV(Q+D)Z AUX)
    Blend: AUG-CC-PVQZ-JKFIT
  @DF-RKS Final Energy:   -26.58557719226357
    Total Energy =                        -26.5855771922635746
    Molecular point group: c1
  Basis Set: AUG-CC-PV(Q+D)Z
    Blend: AUG-CC-PV(Q+D)Z
  Basis Set: (AUG-CC-PV(Q+D)Z AUX)
    Blend: AUG-CC-PVQZ-JKFIT
  @DF-RKS Final Energy:   -26.58557616641492
    Total Energy =                        -26.5855761664149206
  Basis Set: AUG-CC-PV(Q+D)Z
    Blend: AUG-CC-PV(Q+D)Z
  Basis Set: (AUG-CC-PV(Q+D)Z AUX)
    Blend: AUG-CC-PVQZ-JKFIT
  @DF-RKS Final Energy:   -26.58557621603647
    Total Energy =                        -26.5855762160364684
  Basis Set: AUG-CC-PV(Q+D)Z
    Blend: AUG-CC-PV(Q+D)Z
  Basis Set: (AUG-CC-PV(Q+D)Z AUX)
    Blend: AUG-CC-PVQZ-JKFIT
  @DF-RKS Final Energy:   -26.58557484040360
    Total Energy =                        -26.5855748404036021
  @DF-RKS Final Energy:   -26.58557512131589
    Total Energy =                        -26.5855751213158911
  @DF-RKS Final Energy:   -26.58557547322933
    Total Energy =                        -26.5855754732293335
  @DF-RKS Final Energy:   -26.58557522930017
    Total Energy =                        -26.5855752293001686
  @DF-RKS Final Energy:   -26.58558824903228
    Total Energy =                        -26.5855882490322806
  @DF-RKS Final Energy:   -26.58556146703658
    Total Energy =                        -26.5855614670365767
  @DF-RKS Final Energy:   -26.58558526839626
    Total Energy =                        -26.5855852683962581
  @DF-RKS Final Energy:   -26.58556493253339
    Total Energy =                        -26.5855649325333907
  @DF-RKS Final Energy:   -26.58559137871896
    Total Energy =                        -26.5855913787189593
  @DF-RKS Final Energy:   -26.58555805465559
    Total Energy =                        -26.5855580546555892
  @DF-RKS Final Energy:   -26.58557719177705
    Total Energy =                        -26.5855771917770518
  @DF-RKS Final Energy:   -26.58557616772342
    Total Energy =                        -26.5855761677234241
  @DF-RKS Final Energy:   -26.58557621666257
    Total Energy =                        -26.5855762166625702
  @DF-RKS Final Energy:   -26.58557484186031
    Total Energy =                        -26.5855748418603142
  @DF-RKS Final Energy:   -26.58557512083421
    Total Energy =                        -26.5855751208342070
  @DF-RKS Final Energy:   -26.58557547141050
    Total Energy =                        -26.5855754714104968
  @DF-RKS Final Energy:   -26.58557522855254
    Total Energy =                        -26.5855752285525391
  **** Optimization is complete! (in 3 steps) ****
    Final optimized geometry and variables:
  @DF-RKS Final Energy:   -26.58561727482951
    Total Energy =                        -26.5856172748295059
  @DF-RKS Final Energy:   -26.58561741650696
    Total Energy =                        -26.5856174165069632
  @DF-RKS Final Energy:   -26.58561874802133
    Total Energy =                        -26.5856187480213180
  @DF-RKS Final Energy:   -26.58561885986548
    Total Energy =                        -26.5856188598654803
  @DF-RKS Final Energy:   -26.58561641973829
    Total Energy =                        -26.5856164197382867
  @DF-RKS Final Energy:   -26.58561649003794
    Total Energy =                        -26.5856164900379426
  @DF-RKS Final Energy:   -26.58561450162098
    Total Energy =                        -26.5856145016209808
  @DF-RKS Final Energy:   -26.58561462193143
    Total Energy =                        -26.5856146219314340
  @DF-RKS Final Energy:   -26.58561553095686
    Total Energy =                        -26.5856155309568614
  @DF-RKS Final Energy:   -26.58561562706877
    Total Energy =                        -26.5856156270687656
  @DF-RKS Final Energy:   -26.58561645671455
    Total Energy =                        -26.5856164567145541
  @DF-RKS Final Energy:   -26.58561667272114
    Total Energy =                        -26.5856166727211480
  @DF-RKS Final Energy:   -26.58561428952777
    Total Energy =                        -26.5856142895277685
  @DF-RKS Final Energy:   -26.58561444797792
    Total Energy =                        -26.5856144479779175
  @DF-RKS Final Energy:   -26.58561699853404
    Total Energy =                        -26.5856169985340429
  @DF-RKS Final Energy:   -26.58561719380683
    Total Energy =                        -26.5856171938068293
  Basis Set: AUG-CC-PV(Q+D)Z
    Blend: AUG-CC-PV(Q+D)Z
  Basis Set: (AUG-CC-PV(Q+D)Z AUX)
    Blend: AUG-CC-PVQZ-JKFIT
  @DF-RKS Final Energy:   -26.58561482326015
    Total Energy =                        -26.5856148232601477
  Basis Set: AUG-CC-PV(Q+D)Z
    Blend: AUG-CC-PV(Q+D)Z
  Basis Set: (AUG-CC-PV(Q+D)Z AUX)
    Blend: AUG-CC-PVQZ-JKFIT
  @DF-RKS Final Energy:   -26.58561506010552
    Total Energy =                        -26.5856150601055248
  Multiplicity = 1
  Basis Set: AUG-CC-PV(Q+D)Z
    Blend: AUG-CC-PV(Q+D)Z
  Basis Set: (AUG-CC-PV(Q+D)Z AUX)
    Blend: AUG-CC-PVQZ-JKFIT
  @DF-RKS Final Energy:   -26.58561507961268
    Total Energy =                        -26.5856150796126798
    Molecular point group: c1

    Geometry (in Angstrom), charge = 0, multiplicity = 1:

       Center              X                  Y                   Z               Mass
    ------------   -----------------  -----------------  -----------------  -----------------
         B            0.000008358176    -0.000005295950     0.000007153258    11.009305360000
         H           -0.401547177607    -1.036452770516     0.415463179255     1.007825032230
         H           -0.172284726712     0.997767402272     0.621955870930     1.007825032230
         H            0.573740601054     0.038743220285    -1.037497191134     1.007825032230

  Charge       = 0
  Multiplicity = 1
  Basis Set: AUG-CC-PV(Q+D)Z
    Blend: AUG-CC-PV(Q+D)Z
  Basis Set: (AUG-CC-PV(Q+D)Z AUX)
    Blend: AUG-CC-PVQZ-JKFIT

    Orbital Energies [Eh]
    ---------------------

    Doubly Occupied:

       1A     -6.917030     2A     -0.627424     3A     -0.453065
       4A     -0.453057

  @DF-RKS Final Energy:   -26.58561533662539

   => Energetics <=

    Nuclear Repulsion Energy =              7.4590609309925702
    One-Electron Energy =                 -49.1287832702849059
    Two-Electron Energy =                  18.4164600674420953
    DFT Exchange-Correlation Energy =      -3.3661901816870552
    Empirical Dispersion Energy =           0.0000000000000000
    VV10 Nonlocal Energy =                  0.0338371169119048
    Total Energy =                        -26.5856153366253913

  Dipole Moment: [D]
     X:     0.0005      Y:    -0.0014      Z:    -0.0011     Total:     0.0018

  Vibration                       7                   8                   9
  Freq [cm^-1]                1115.9691           1150.7248           1152.7472
  Irrep                           A                   A                   A
  Reduced mass [u]              1.0979              1.2510              1.1073
  Force const [mDyne/A]         0.8056              0.9760              0.8669

  Vibration                       10                  11                  12
  Freq [cm^-1]                2596.8494           2684.9295           2689.3881
  Irrep                           A                   A                   A
  Reduced mass [u]              1.0119              1.1326              1.1282
  Force const [mDyne/A]         4.0205              4.8107              4.8076

  ==> Thermochemistry Components <==

  Entropy, S
    Electronic S            0.000 [cal/(mol K)]        0.000 [J/(mol K)]       0.00000000 [mEh/K] (multiplicity = 1)
    Translational S        33.864 [cal/(mol K)]      141.688 [J/(mol K)]       0.05396630 [mEh/K] (mol. weight = 14.0328 [u], P = 101325.00 [Pa])
    Rotational S           14.531 [cal/(mol K)]       60.798 [J/(mol K)]       0.02315685 [mEh/K] (symmetry no. = 1)
    Vibrational S           0.160 [cal/(mol K)]        0.667 [J/(mol K)]       0.00025420 [mEh/K]
  Total S                  48.555 [cal/(mol K)]      203.154 [J/(mol K)]       0.07737735 [mEh/K]
  Correction S              0.000 [cal/(mol K)]        0.000 [J/(mol K)]       0.00000000 [mEh/K]

  Constant volume heat capacity, Cv
    Electronic Cv           0.000 [cal/(mol K)]        0.000 [J/(mol K)]       0.00000000 [mEh/K]
    Translational Cv        2.981 [cal/(mol K)]       12.472 [J/(mol K)]       0.00475022 [mEh/K]
    Rotational Cv           2.981 [cal/(mol K)]       12.472 [J/(mol K)]       0.00475022 [mEh/K]
    Vibrational Cv          0.746 [cal/(mol K)]        3.123 [J/(mol K)]       0.00118956 [mEh/K]
  Total Cv                  6.708 [cal/(mol K)]       28.067 [J/(mol K)]       0.01068999 [mEh/K]
  Correction Cv             0.000 [cal/(mol K)]        0.000 [J/(mol K)]       0.00000000 [mEh/K]

  Constant pressure heat capacity, Cp
    Electronic Cp           0.000 [cal/(mol K)]        0.000 [J/(mol K)]       0.00000000 [mEh/K]
    Translational Cp        4.968 [cal/(mol K)]       20.786 [J/(mol K)]       0.00791703 [mEh/K]
    Rotational Cp           2.981 [cal/(mol K)]       12.472 [J/(mol K)]       0.00475022 [mEh/K]
    Vibrational Cp          0.746 [cal/(mol K)]        3.123 [J/(mol K)]       0.00118956 [mEh/K]
  Total Cp                  8.695 [cal/(mol K)]       36.381 [J/(mol K)]       0.01385680 [mEh/K]
  Correction Cp             0.000 [cal/(mol K)]        0.000 [J/(mol K)]       0.00000000 [mEh/K]

  ==> Thermochemistry Energy Analysis <==

  Raw electronic energy, E0
  Total E0, Electronic energy at well bottom at 0 [K]                  -26.58562070 [Eh]

  Zero-point energy, ZPE_vib = Sum_i nu_i / 2
    Electronic ZPE          0.000 [kcal/mol]        0.000 [kJ/mol]       0.00000000 [Eh]
    Translational ZPE       0.000 [kcal/mol]        0.000 [kJ/mol]       0.00000000 [Eh]
    Rotational ZPE          0.000 [kcal/mol]        0.000 [kJ/mol]       0.00000000 [Eh]
    Vibrational ZPE        16.284 [kcal/mol]       68.131 [kJ/mol]       0.02594971 [Eh]        5695.304 [cm^-1]
  Correction ZPE           16.284 [kcal/mol]       68.131 [kJ/mol]       0.02594971 [Eh]        5695.304 [cm^-1]
  Total ZPE, Electronic energy at 0 [K]                                -26.55967098 [Eh]

  Thermal Energy, E (includes ZPE)
    Electronic E            0.000 [kcal/mol]        0.000 [kJ/mol]       0.00000000 [Eh]
    Translational E         0.889 [kcal/mol]        3.718 [kJ/mol]       0.00141628 [Eh]
    Rotational E            0.889 [kcal/mol]        3.718 [kJ/mol]       0.00141628 [Eh]
    Vibrational E          16.324 [kcal/mol]       68.299 [kJ/mol]       0.02601386 [Eh]
  Correction E             18.101 [kcal/mol]       75.736 [kJ/mol]       0.02884642 [Eh]
  Total E, Electronic energy at  298.15 [K]                            -26.55677428 [Eh]

  Enthalpy, H_trans = E_trans + k_B * T
    Electronic H            0.000 [kcal/mol]        0.000 [kJ/mol]       0.00000000 [Eh]
    Translational H         1.481 [kcal/mol]        6.197 [kJ/mol]       0.00236046 [Eh]
    Rotational H            0.889 [kcal/mol]        3.718 [kJ/mol]       0.00141628 [Eh]
    Vibrational H          16.324 [kcal/mol]       68.299 [kJ/mol]       0.02601386 [Eh]
  Correction H             18.694 [kcal/mol]       78.215 [kJ/mol]       0.02979060 [Eh]
  Total H, Enthalpy at  298.15 [K]                                     -26.55583010 [Eh]

  Gibbs free energy, G = H - T * S
    Electronic G            0.000 [kcal/mol]        0.000 [kJ/mol]       0.00000000 [Eh]
    Translational G        -8.615 [kcal/mol]      -36.047 [kJ/mol]      -0.01372959 [Eh]
    Rotational G           -3.444 [kcal/mol]      -14.409 [kJ/mol]      -0.00548794 [Eh]
    Vibrational G          16.276 [kcal/mol]       68.100 [kJ/mol]       0.02593807 [Eh]
  Correction G              4.217 [kcal/mol]       17.645 [kJ/mol]       0.00672054 [Eh]
  Total G, Free enthalpy at  298.15 [K]                                -26.57890015 [Eh]

*** Psi4 exiting successfully. Buy a developer a beer!
