                               Psi4 1.3.2 release

  ==> Input File <==

--------------------------------------------------------------------------
memory 144 GB

molecule {
0 1
B 0.0000000000 0.0000000000 0.0000000000
H 0.0000000000 0.0000000000 1.1899000000
H 1.0304836280 0.0000000000 -0.5949500000
H -1.0304836280 -0.0000000000 -0.5949500000
}

set dynamic_level 1
set basis aug-cc-pV(Q+d)Z

optimize("wB97M-V")
frequencies("wB97M-V")
--------------------------------------------------------------------------

    Molecular point group: c2v
  Charge       = 0
  Multiplicity = 1
  Basis Set: AUG-CC-PV(Q+D)Z
    Blend: AUG-CC-PV(Q+D)Z
  Basis Set: (AUG-CC-PV(Q+D)Z AUX)
    Blend: AUG-CC-PVQZ-JKFIT
  @DF-RKS Final Energy:   -26.58559253820198
    Total Energy =                        -26.5855925382019755
    Molecular point group: c2v
  Basis Set: AUG-CC-PV(Q+D)Z
    Blend: AUG-CC-PV(Q+D)Z
  Basis Set: (AUG-CC-PV(Q+D)Z AUX)
    Blend: AUG-CC-PVQZ-JKFIT
  @DF-RKS Final Energy:   -26.58559038847409
    Total Energy =                        -26.5855903884740918
  Basis Set: AUG-CC-PV(Q+D)Z
    Blend: AUG-CC-PV(Q+D)Z
  Basis Set: (AUG-CC-PV(Q+D)Z AUX)
    Blend: AUG-CC-PVQZ-JKFIT
  @DF-RKS Final Energy:   -26.58559038445811
    Total Energy =                        -26.5855903844581150
  Basis Set: AUG-CC-PV(Q+D)Z
    Blend: AUG-CC-PV(Q+D)Z
  Basis Set: (AUG-CC-PV(Q+D)Z AUX)
    Blend: AUG-CC-PVQZ-JKFIT
  @DF-RKS Final Energy:   -26.58560328461983
    Total Energy =                        -26.5856032846198218
  @DF-RKS Final Energy:   -26.58557677032307
    Total Energy =                        -26.5855767703230654
  @DF-RKS Final Energy:   -26.58560329874053
    Total Energy =                        -26.5856032987405264
  @DF-RKS Final Energy:   -26.58557675329552
    Total Energy =                        -26.5855767532955234
  @DF-RKS Final Energy:   -26.58562080545686
    Total Energy =                        -26.5856208054568590
  @DF-RKS Final Energy:   -26.58561861410907
    Total Energy =                        -26.5856186141090731
  @DF-RKS Final Energy:   -26.58561861847048
    Total Energy =                        -26.5856186184704804
  @DF-RKS Final Energy:   -26.58561835988012
    Total Energy =                        -26.5856183598801152
  @DF-RKS Final Energy:   -26.58561813287300
    Total Energy =                        -26.5856181328730017
  @DF-RKS Final Energy:   -26.58561836046923
    Total Energy =                        -26.5856183604692333
  @DF-RKS Final Energy:   -26.58561813400775
    Total Energy =                        -26.5856181340077526
  **** Optimization is complete! (in 2 steps) ****
    Final optimized geometry and variables:
  @DF-RKS Final Energy:   -26.58562080691660
    Total Energy =                        -26.5856208069166016
  @DF-RKS Final Energy:   -26.58561861415013
    Total Energy =                        -26.5856186141501354
  @DF-RKS Final Energy:   -26.58561861830332
    Total Energy =                        -26.5856186183033252
  @DF-RKS Final Energy:   -26.58561835890376
    Total Energy =                        -26.5856183589037549
  @DF-RKS Final Energy:   -26.58561813508780
    Total Energy =                        -26.5856181350877989
  @DF-RKS Final Energy:   -26.58561836092655
    Total Energy =                        -26.5856183609265493
  @DF-RKS Final Energy:   -26.58561813387617
    Total Energy =                        -26.5856181338761743
  @DF-RKS Final Energy:   -26.58562080691662
    Total Energy =                        -26.5856208069166193
  @DF-RKS Final Energy:   -26.58561861415015
    Total Energy =                        -26.5856186141501531
  @DF-RKS Final Energy:   -26.58561861830328
    Total Energy =                        -26.5856186183032790
  @DF-RKS Final Energy:   -26.58561835890374
    Total Energy =                        -26.5856183589037407
  @DF-RKS Final Energy:   -26.58561813508778
    Total Energy =                        -26.5856181350877776
  @DF-RKS Final Energy:   -26.58561836092646
    Total Energy =                        -26.5856183609264605
  @DF-RKS Final Energy:   -26.58561813387619
    Total Energy =                        -26.5856181338761886
  @DF-RKS Final Energy:   -26.58561790630381
    Total Energy =                        -26.5856179063038063
  @DF-RKS Final Energy:   -26.58561813148381
    Total Energy =                        -26.5856181314838125
  @DF-RKS Final Energy:   -26.58561399243490
    Total Energy =                        -26.5856139924349009
  @DF-RKS Final Energy:   -26.58561418687304
    Total Energy =                        -26.5856141868730447
  @DF-RKS Final Energy:   -26.58561426862989
    Total Energy =                        -26.5856142686298860
  @DF-RKS Final Energy:   -26.58561470415052
    Total Energy =                        -26.5856147041505189
  @DF-RKS Final Energy:   -26.58561861380800
    Total Energy =                        -26.5856186138080020
  Basis Set: AUG-CC-PV(Q+D)Z
    Blend: AUG-CC-PV(Q+D)Z
  Basis Set: (AUG-CC-PV(Q+D)Z AUX)
    Blend: AUG-CC-PVQZ-JKFIT
  @DF-RKS Final Energy:   -26.58561844199474
    Total Energy =                        -26.5856184419947397
  Basis Set: AUG-CC-PV(Q+D)Z
    Blend: AUG-CC-PV(Q+D)Z
  Basis Set: (AUG-CC-PV(Q+D)Z AUX)
    Blend: AUG-CC-PVQZ-JKFIT
  @DF-RKS Final Energy:   -26.58561346510407
    Total Energy =                        -26.5856134651040712
  Multiplicity = 1
  Basis Set: AUG-CC-PV(Q+D)Z
    Blend: AUG-CC-PV(Q+D)Z
  Basis Set: (AUG-CC-PV(Q+D)Z AUX)
    Blend: AUG-CC-PVQZ-JKFIT
  @DF-RKS Final Energy:   -26.58561346568474
    Total Energy =                        -26.5856134656847409
    Molecular point group: cs

    Geometry (in Angstrom), charge = 0, multiplicity = 1:

       Center              X                  Y                   Z               Mass
    ------------   -----------------  -----------------  -----------------  -----------------
         B            0.000000000000    -0.000370145531     0.000000307622    11.009305360000
         H            0.000000000000     0.001347805049     1.185376964119     1.007825032230
         H            1.026559715418     0.001347800179    -0.592690162265     1.007825032230
         H           -1.026559715418     0.001347800179    -0.592690162265     1.007825032230

  Charge       = 0
  Multiplicity = 1
  Basis Set: AUG-CC-PV(Q+D)Z
    Blend: AUG-CC-PV(Q+D)Z
  Basis Set: (AUG-CC-PV(Q+D)Z AUX)
    Blend: AUG-CC-PVQZ-JKFIT

    Orbital Energies [Eh]
    ---------------------

    Doubly Occupied:

       1Ap    -6.916456     2Ap    -0.627698     3Ap    -0.453266
       1App   -0.453264

  @DF-RKS Final Energy:   -26.58562017638009

   => Energetics <=

    Nuclear Repulsion Energy =              7.4695537860180430
    One-Electron Energy =                 -49.1488658352277241
    Two-Electron Energy =                  18.4272002727498432
    DFT Exchange-Correlation Energy =      -3.3673468963677813
    Empirical Dispersion Energy =           0.0000000000000000
    VV10 Nonlocal Energy =                  0.0338384964475264
    Total Energy =                        -26.5856201763800968

  Dipole Moment: [D]
     X:     0.0000      Y:    -0.0038      Z:     0.0000     Total:     0.0038

  Vibration                       7                   8                   9
  Freq [cm^-1]                1154.5278           1199.6424           1367.5014
  Irrep                           B2                  A1                  B1
  Reduced mass [u]              1.2531              1.1072              1.1247
  Force const [mDyne/A]         0.9841              0.9388              1.2392

  Vibration                       10                  11                  12
  Freq [cm^-1]                2584.7034           2708.0517           2786.6599
  Irrep                           A1                  A1                  B1
  Reduced mass [u]              1.0078              1.1273              1.1097
  Force const [mDyne/A]         3.9670              4.8709              5.0774

  ==> Thermochemistry Components <==

  Entropy, S
    Electronic S            0.000 [cal/(mol K)]        0.000 [J/(mol K)]       0.00000000 [mEh/K] (multiplicity = 1)
    Translational S        33.864 [cal/(mol K)]      141.688 [J/(mol K)]       0.05396630 [mEh/K] (mol. weight = 14.0328 [u], P = 101325.00 [Pa])
    Rotational S           13.154 [cal/(mol K)]       55.036 [J/(mol K)]       0.02096224 [mEh/K] (symmetry no. = 2)
    Vibrational S           0.112 [cal/(mol K)]        0.469 [J/(mol K)]       0.00017859 [mEh/K]
  Total S                  47.130 [cal/(mol K)]      197.194 [J/(mol K)]       0.07510713 [mEh/K]
  Correction S              0.000 [cal/(mol K)]        0.000 [J/(mol K)]       0.00000000 [mEh/K]

  Constant volume heat capacity, Cv
    Electronic Cv           0.000 [cal/(mol K)]        0.000 [J/(mol K)]       0.00000000 [mEh/K]
    Translational Cv        2.981 [cal/(mol K)]       12.472 [J/(mol K)]       0.00475022 [mEh/K]
    Rotational Cv           2.981 [cal/(mol K)]       12.472 [J/(mol K)]       0.00475022 [mEh/K]
    Vibrational Cv          0.562 [cal/(mol K)]        2.352 [J/(mol K)]       0.00089589 [mEh/K]
  Total Cv                  6.524 [cal/(mol K)]       27.296 [J/(mol K)]       0.01039632 [mEh/K]
  Correction Cv             0.000 [cal/(mol K)]        0.000 [J/(mol K)]       0.00000000 [mEh/K]

  Constant pressure heat capacity, Cp
    Electronic Cp           0.000 [cal/(mol K)]        0.000 [J/(mol K)]       0.00000000 [mEh/K]
    Translational Cp        4.968 [cal/(mol K)]       20.786 [J/(mol K)]       0.00791703 [mEh/K]
    Rotational Cp           2.981 [cal/(mol K)]       12.472 [J/(mol K)]       0.00475022 [mEh/K]
    Vibrational Cp          0.562 [cal/(mol K)]        2.352 [J/(mol K)]       0.00089589 [mEh/K]
  Total Cp                  8.511 [cal/(mol K)]       35.610 [J/(mol K)]       0.01356313 [mEh/K]
  Correction Cp             0.000 [cal/(mol K)]        0.000 [J/(mol K)]       0.00000000 [mEh/K]

  ==> Thermochemistry Energy Analysis <==

  Raw electronic energy, E0
  Total E0, Electronic energy at well bottom at 0 [K]                  -26.58562081 [Eh]

  Zero-point energy, ZPE_vib = Sum_i nu_i / 2
    Electronic ZPE          0.000 [kcal/mol]        0.000 [kJ/mol]       0.00000000 [Eh]
    Translational ZPE       0.000 [kcal/mol]        0.000 [kJ/mol]       0.00000000 [Eh]
    Rotational ZPE          0.000 [kcal/mol]        0.000 [kJ/mol]       0.00000000 [Eh]
    Vibrational ZPE        16.871 [kcal/mol]       70.586 [kJ/mol]       0.02688485 [Eh]        5900.543 [cm^-1]
  Correction ZPE           16.871 [kcal/mol]       70.586 [kJ/mol]       0.02688485 [Eh]        5900.543 [cm^-1]
  Total ZPE, Electronic energy at 0 [K]                                -26.55873595 [Eh]

  Thermal Energy, E (includes ZPE)
    Electronic E            0.000 [kcal/mol]        0.000 [kJ/mol]       0.00000000 [Eh]
    Translational E         0.889 [kcal/mol]        3.718 [kJ/mol]       0.00141628 [Eh]
    Rotational E            0.889 [kcal/mol]        3.718 [kJ/mol]       0.00141628 [Eh]
    Vibrational E          16.899 [kcal/mol]       70.706 [kJ/mol]       0.02693031 [Eh]
  Correction E             18.676 [kcal/mol]       78.142 [kJ/mol]       0.02976287 [Eh]
  Total E, Electronic energy at  298.15 [K]                            -26.55585794 [Eh]

  Enthalpy, H_trans = E_trans + k_B * T
    Electronic H            0.000 [kcal/mol]        0.000 [kJ/mol]       0.00000000 [Eh]
    Translational H         1.481 [kcal/mol]        6.197 [kJ/mol]       0.00236046 [Eh]
    Rotational H            0.889 [kcal/mol]        3.718 [kJ/mol]       0.00141628 [Eh]
    Vibrational H          16.899 [kcal/mol]       70.706 [kJ/mol]       0.02693031 [Eh]
  Correction H             19.269 [kcal/mol]       80.621 [kJ/mol]       0.03070705 [Eh]
  Total H, Enthalpy at  298.15 [K]                                     -26.55491376 [Eh]

  Gibbs free energy, G = H - T * S
    Electronic G            0.000 [kcal/mol]        0.000 [kJ/mol]       0.00000000 [Eh]
    Translational G        -8.615 [kcal/mol]      -36.047 [kJ/mol]      -0.01372959 [Eh]
    Rotational G           -3.033 [kcal/mol]      -12.691 [kJ/mol]      -0.00483362 [Eh]
    Vibrational G          16.866 [kcal/mol]       70.566 [kJ/mol]       0.02687707 [Eh]
  Correction G              5.217 [kcal/mol]       21.828 [kJ/mol]       0.00831386 [Eh]
  Total G, Free enthalpy at  298.15 [K]                                -26.57730695 [Eh]

*** Psi4 exiting successfully. Buy a developer a beer!
