                               Psi4 1.3.2 release

  ==> Input File <==

--------------------------------------------------------------------------
memory 144 GB

molecule {
0 1
C 0.0000000000 0.0000000000 0.0000000000
C 0.0000000000 0.0000000000 1.2065000000
H 0.0000000000 -0.0000000000 2.2699000000
H -0.0000000000 -0.0000000000 -1.0634000000
}

set dynamic_level 1
set basis aug-cc-pV(Q+d)Z

optimize("wB97M-V")
frequencies("wB97M-V")
--------------------------------------------------------------------------

    Molecular point group: d2h
  Charge       = 0
  Multiplicity = 1
  Basis Set: AUG-CC-PV(Q+D)Z
    Blend: AUG-CC-PV(Q+D)Z
  Basis Set: (AUG-CC-PV(Q+D)Z AUX)
    Blend: AUG-CC-PVQZ-JKFIT
  @DF-RKS Final Energy:   -77.32839690100016
    Total Energy =                        -77.3283969010001471
    Molecular point group: d2h
  Basis Set: AUG-CC-PV(Q+D)Z
    Blend: AUG-CC-PV(Q+D)Z
  Basis Set: (AUG-CC-PV(Q+D)Z AUX)
    Blend: AUG-CC-PVQZ-JKFIT
  @DF-RKS Final Energy:   -77.32834487111282
    Total Energy =                        -77.3283448711128045
  Basis Set: AUG-CC-PV(Q+D)Z
    Blend: AUG-CC-PV(Q+D)Z
  Basis Set: (AUG-CC-PV(Q+D)Z AUX)
    Blend: AUG-CC-PVQZ-JKFIT
  @DF-RKS Final Energy:   -77.32844374575876
    Total Energy =                        -77.3284437457587757
  Basis Set: AUG-CC-PV(Q+D)Z
    Blend: AUG-CC-PV(Q+D)Z
  Basis Set: (AUG-CC-PV(Q+D)Z AUX)
    Blend: AUG-CC-PVQZ-JKFIT
  @DF-RKS Final Energy:   -77.32839996167696
    Total Energy =                        -77.3283999616769790
  @DF-RKS Final Energy:   -77.32838380865660
    Total Energy =                        -77.3283838086565822
  @DF-RKS Final Energy:   -77.32869327149999
    Total Energy =                        -77.3286932714999864
  @DF-RKS Final Energy:   -77.32869518775998
    Total Energy =                        -77.3286951877599904
  @DF-RKS Final Energy:   -77.32868577141468
    Total Energy =                        -77.3286857714146691
  @DF-RKS Final Energy:   -77.32868877757764
    Total Energy =                        -77.3286887775776393
  @DF-RKS Final Energy:   -77.32868768774826
    Total Energy =                        -77.3286876877482570
  @DF-RKS Final Energy:   -77.32869544661887
    Total Energy =                        -77.3286954466188661
  @DF-RKS Final Energy:   -77.32869243864876
    Total Energy =                        -77.3286924386487584
  @DF-RKS Final Energy:   -77.32869284486783
    Total Energy =                        -77.3286928448678452
  @DF-RKS Final Energy:   -77.32869032537229
    Total Energy =                        -77.3286903253723068
  @DF-RKS Final Energy:   -77.32869051571355
    Total Energy =                        -77.3286905157135322
  **** Optimization is complete! (in 3 steps) ****
    Final optimized geometry and variables:
  @DF-RKS Final Energy:   -77.32869544661932
    Total Energy =                        -77.3286954466193350
  @DF-RKS Final Energy:   -77.32869243864913
    Total Energy =                        -77.3286924386491279
  @DF-RKS Final Energy:   -77.32869284486804
    Total Energy =                        -77.3286928448680442
  @DF-RKS Final Energy:   -77.32869032537228
    Total Energy =                        -77.3286903253722784
  @DF-RKS Final Energy:   -77.32869051571357
    Total Energy =                        -77.3286905157135749
  @DF-RKS Final Energy:   -77.32869544661929
    Total Energy =                        -77.3286954466193066
  @DF-RKS Final Energy:   -77.32869243864911
    Total Energy =                        -77.3286924386490995
  @DF-RKS Final Energy:   -77.32869284486816
    Total Energy =                        -77.3286928448681579
  @DF-RKS Final Energy:   -77.32869032537242
    Total Energy =                        -77.3286903253724347
  @DF-RKS Final Energy:   -77.32869051571359
    Total Energy =                        -77.3286905157136033
  @DF-RKS Final Energy:   -77.32868482093541
    Total Energy =                        -77.3286848209354218
  @DF-RKS Final Energy:   -77.32868420041750
    Total Energy =                        -77.3286842004174986
  @DF-RKS Final Energy:   -77.32869529943504
    Total Energy =                        -77.3286952994350258
  Basis Set: AUG-CC-PV(Q+D)Z
    Blend: AUG-CC-PV(Q+D)Z
  Basis Set: (AUG-CC-PV(Q+D)Z AUX)
    Blend: AUG-CC-PVQZ-JKFIT
  @DF-RKS Final Energy:   -77.32869527233044
    Total Energy =                        -77.3286952723304353
  Basis Set: AUG-CC-PV(Q+D)Z
    Blend: AUG-CC-PV(Q+D)Z
  Basis Set: (AUG-CC-PV(Q+D)Z AUX)
    Blend: AUG-CC-PVQZ-JKFIT
  @DF-RKS Final Energy:   -77.32868998550450
    Total Energy =                        -77.3286899855045107
  Multiplicity = 1
  Basis Set: AUG-CC-PV(Q+D)Z
    Blend: AUG-CC-PV(Q+D)Z
  Basis Set: (AUG-CC-PV(Q+D)Z AUX)
    Blend: AUG-CC-PVQZ-JKFIT
  @DF-RKS Final Energy:   -77.32869524359224
    Total Energy =                        -77.3286952435922359
    Molecular point group: c2v

    Geometry (in Angstrom), charge = 0, multiplicity = 1:

       Center              X                  Y                   Z               Mass
    ------------   -----------------  -----------------  -----------------  -----------------
         C           -0.000150333491     0.000000000000    -0.597182421987    12.000000000000
         C           -0.000150333491     0.000000000000     0.597182421987    12.000000000000
         H            0.001789995126     0.000000000000     1.658891984259     1.007825032230
         H            0.001789995126     0.000000000000    -1.658891984259     1.007825032230

  Charge       = 0
  Multiplicity = 1
  Basis Set: AUG-CC-PV(Q+D)Z
    Blend: AUG-CC-PV(Q+D)Z
  Basis Set: (AUG-CC-PV(Q+D)Z AUX)
    Blend: AUG-CC-PVQZ-JKFIT

    Orbital Energies [Eh]
    ---------------------

    Doubly Occupied:

       1A1   -10.349883     1B2   -10.347278     2A1    -0.878937
       2B2    -0.678664     3A1    -0.604476     1B1    -0.396632
       4A1    -0.396632

  @DF-RKS Final Energy:   -77.32869518294416

   => Energetics <=

    Nuclear Repulsion Energy =             24.9054228981393386
    One-Electron Energy =                -152.1516097890888659
    Two-Electron Energy =                  57.9009833909461804
    DFT Exchange-Correlation Energy =      -8.0412086549690507
    Empirical Dispersion Energy =           0.0000000000000000
    VV10 Nonlocal Energy =                  0.0577169720282416
    Total Energy =                        -77.3286951829441591

  Dipole Moment: [D]
     X:     0.0040      Y:     0.0000      Z:     0.0000     Total:     0.0040

  Vibration                       6                   7                   8
  Freq [cm^-1]                 557.8018            606.9936            655.1281
  Irrep                          B2g                 B3g                 B2u
  Reduced mass [u]              1.5752              1.5752              1.0848
  Force const [mDyne/A]         0.2888              0.3420              0.2743

  Vibration                       9                   10                  11
  Freq [cm^-1]                 746.5929           2059.5934           3397.7383
  Irrep                          B3u                  Ag                 B1u
  Reduced mass [u]              1.0848              3.6580              1.0848
  Force const [mDyne/A]         0.3563              9.1423              7.3788

  Vibration                       12
  Freq [cm^-1]                3508.9073
  Irrep                           Ag
  Reduced mass [u]              1.2466
  Force const [mDyne/A]         9.0431

  ==> Thermochemistry Components <==

  Entropy, S
    Electronic S            0.000 [cal/(mol K)]        0.000 [J/(mol K)]       0.00000000 [mEh/K] (multiplicity = 1)
    Translational S        35.704 [cal/(mol K)]      149.387 [J/(mol K)]       0.05689862 [mEh/K] (mol. weight = 26.0157 [u], P = 101325.00 [Pa])
    Rotational S           10.855 [cal/(mol K)]       45.417 [J/(mol K)]       0.01729854 [mEh/K] (symmetry no. = 2)
    Vibrational S           1.586 [cal/(mol K)]        6.638 [J/(mol K)]       0.00252818 [mEh/K]
  Total S                  48.146 [cal/(mol K)]      201.442 [J/(mol K)]       0.07672534 [mEh/K]
  Correction S              0.000 [cal/(mol K)]        0.000 [J/(mol K)]       0.00000000 [mEh/K]

  Constant volume heat capacity, Cv
    Electronic Cv           0.000 [cal/(mol K)]        0.000 [J/(mol K)]       0.00000000 [mEh/K]
    Translational Cv        2.981 [cal/(mol K)]       12.472 [J/(mol K)]       0.00475022 [mEh/K]
    Rotational Cv           1.987 [cal/(mol K)]        8.314 [J/(mol K)]       0.00316681 [mEh/K]
    Vibrational Cv          3.809 [cal/(mol K)]       15.939 [J/(mol K)]       0.00607072 [mEh/K]
  Total Cv                  8.777 [cal/(mol K)]       36.725 [J/(mol K)]       0.01398775 [mEh/K]
  Correction Cv             0.000 [cal/(mol K)]        0.000 [J/(mol K)]       0.00000000 [mEh/K]

  Constant pressure heat capacity, Cp
    Electronic Cp           0.000 [cal/(mol K)]        0.000 [J/(mol K)]       0.00000000 [mEh/K]
    Translational Cp        4.968 [cal/(mol K)]       20.786 [J/(mol K)]       0.00791703 [mEh/K]
    Rotational Cp           1.987 [cal/(mol K)]        8.314 [J/(mol K)]       0.00316681 [mEh/K]
    Vibrational Cp          3.809 [cal/(mol K)]       15.939 [J/(mol K)]       0.00607072 [mEh/K]
  Total Cp                 10.765 [cal/(mol K)]       45.039 [J/(mol K)]       0.01715456 [mEh/K]
  Correction Cp             0.000 [cal/(mol K)]        0.000 [J/(mol K)]       0.00000000 [mEh/K]

  ==> Thermochemistry Energy Analysis <==

  Raw electronic energy, E0
  Total E0, Electronic energy at well bottom at 0 [K]                  -77.32869545 [Eh]

  Zero-point energy, ZPE_vib = Sum_i nu_i / 2
    Electronic ZPE          0.000 [kcal/mol]        0.000 [kJ/mol]       0.00000000 [Eh]
    Translational ZPE       0.000 [kcal/mol]        0.000 [kJ/mol]       0.00000000 [Eh]
    Rotational ZPE          0.000 [kcal/mol]        0.000 [kJ/mol]       0.00000000 [Eh]
    Vibrational ZPE        16.487 [kcal/mol]       68.981 [kJ/mol]       0.02627355 [Eh]        5766.378 [cm^-1]
  Correction ZPE           16.487 [kcal/mol]       68.981 [kJ/mol]       0.02627355 [Eh]        5766.378 [cm^-1]
  Total ZPE, Electronic energy at 0 [K]                                -77.30242190 [Eh]

  Thermal Energy, E (includes ZPE)
    Electronic E            0.000 [kcal/mol]        0.000 [kJ/mol]       0.00000000 [Eh]
    Translational E         0.889 [kcal/mol]        3.718 [kJ/mol]       0.00141628 [Eh]
    Rotational E            0.592 [kcal/mol]        2.479 [kJ/mol]       0.00094418 [Eh]
    Vibrational E          16.844 [kcal/mol]       70.474 [kJ/mol]       0.02684222 [Eh]
  Correction E             18.325 [kcal/mol]       76.672 [kJ/mol]       0.02920268 [Eh]
  Total E, Electronic energy at  298.15 [K]                            -77.29949277 [Eh]

  Enthalpy, H_trans = E_trans + k_B * T
    Electronic H            0.000 [kcal/mol]        0.000 [kJ/mol]       0.00000000 [Eh]
    Translational H         1.481 [kcal/mol]        6.197 [kJ/mol]       0.00236046 [Eh]
    Rotational H            0.592 [kcal/mol]        2.479 [kJ/mol]       0.00094418 [Eh]
    Vibrational H          16.844 [kcal/mol]       70.474 [kJ/mol]       0.02684222 [Eh]
  Correction H             18.917 [kcal/mol]       79.151 [kJ/mol]       0.03014687 [Eh]
  Total H, Enthalpy at  298.15 [K]                                     -77.29854858 [Eh]

  Gibbs free energy, G = H - T * S
    Electronic G            0.000 [kcal/mol]        0.000 [kJ/mol]       0.00000000 [Eh]
    Translational G        -9.164 [kcal/mol]      -38.342 [kJ/mol]      -0.01460386 [Eh]
    Rotational G           -2.644 [kcal/mol]      -11.062 [kJ/mol]      -0.00421338 [Eh]
    Vibrational G          16.371 [kcal/mol]       68.495 [kJ/mol]       0.02608844 [Eh]
  Correction G              4.563 [kcal/mol]       19.091 [kJ/mol]       0.00727121 [Eh]
  Total G, Free enthalpy at  298.15 [K]                                -77.32142424 [Eh]

*** Psi4 exiting successfully. Buy a developer a beer!
