                               Psi4 1.3.2 release

  ==> Input File <==

--------------------------------------------------------------------------
memory 144 GB

molecule {
0 1
C 0.0000000000 0.0000000000 0.0000000000
C 0.0000000000 0.0000000000 1.3342000000
H 0.9234041342 0.0000000000 1.8987335198
H -0.9234041342 0.0000000000 1.8987335198
H 0.9234041342 0.0000000000 -0.5645335198
H -0.9234041342 -0.0000000000 -0.5645335198
}

set dynamic_level 1
set basis aug-cc-pV(Q+d)Z

optimize("wB97M-V")
frequencies("wB97M-V")
--------------------------------------------------------------------------

    Molecular point group: d2h
  Charge       = 0
  Multiplicity = 1
  Basis Set: AUG-CC-PV(Q+D)Z
    Blend: AUG-CC-PV(Q+D)Z
  Basis Set: (AUG-CC-PV(Q+D)Z AUX)
    Blend: AUG-CC-PVQZ-JKFIT
  @DF-RKS Final Energy:   -78.57178577942862
    Total Energy =                        -78.5717857794286232
    Molecular point group: d2h
  Basis Set: AUG-CC-PV(Q+D)Z
    Blend: AUG-CC-PV(Q+D)Z
  Basis Set: (AUG-CC-PV(Q+D)Z AUX)
    Blend: AUG-CC-PVQZ-JKFIT
  @DF-RKS Final Energy:   -78.57175707822907
    Total Energy =                        -78.5717570782290693
  Basis Set: AUG-CC-PV(Q+D)Z
    Blend: AUG-CC-PV(Q+D)Z
  Basis Set: (AUG-CC-PV(Q+D)Z AUX)
    Blend: AUG-CC-PVQZ-JKFIT
  @DF-RKS Final Energy:   -78.57181170659783
    Total Energy =                        -78.5718117065978277
  Basis Set: AUG-CC-PV(Q+D)Z
    Blend: AUG-CC-PV(Q+D)Z
  Basis Set: (AUG-CC-PV(Q+D)Z AUX)
    Blend: AUG-CC-PVQZ-JKFIT
  @DF-RKS Final Energy:   -78.57178987632605
    Total Energy =                        -78.5717898763260507
  @DF-RKS Final Energy:   -78.57177448348072
    Total Energy =                        -78.5717744834807235
  @DF-RKS Final Energy:   -78.57178844616384
    Total Energy =                        -78.5717884461638363
  @DF-RKS Final Energy:   -78.57177941276584
    Total Energy =                        -78.5717794127658351
  @DF-RKS Final Energy:   -78.57195121813740
    Total Energy =                        -78.5719512181374000
  @DF-RKS Final Energy:   -78.57195058475001
    Total Energy =                        -78.5719505847500130
  @DF-RKS Final Energy:   -78.57194887647098
    Total Energy =                        -78.5719488764709695
  @DF-RKS Final Energy:   -78.57194796960364
    Total Energy =                        -78.5719479696036416
  @DF-RKS Final Energy:   -78.57194720291507
    Total Energy =                        -78.5719472029150694
  @DF-RKS Final Energy:   -78.57194530750753
    Total Energy =                        -78.5719453075075194
  @DF-RKS Final Energy:   -78.57195339789752
    Total Energy =                        -78.5719533978974880
  @DF-RKS Final Energy:   -78.57195523806175
    Total Energy =                        -78.5719552380617330
  @DF-RKS Final Energy:   -78.57195305659340
    Total Energy =                        -78.5719530565933866
  @DF-RKS Final Energy:   -78.57195420436783
    Total Energy =                        -78.5719542043678274
  @DF-RKS Final Energy:   -78.57195189649202
    Total Energy =                        -78.5719518964920383
  @DF-RKS Final Energy:   -78.57195128300854
    Total Energy =                        -78.5719512830085449
  @DF-RKS Final Energy:   -78.57195227411701
    Total Energy =                        -78.5719522741170238
  **** Optimization is complete! (in 4 steps) ****
    Final optimized geometry and variables:
  @DF-RKS Final Energy:   -78.57194912052340
    Total Energy =                        -78.5719491205234135
  @DF-RKS Final Energy:   -78.57195092953803
    Total Energy =                        -78.5719509295380334
  @DF-RKS Final Energy:   -78.57195091730202
    Total Energy =                        -78.5719509173020043
  @DF-RKS Final Energy:   -78.57194704610852
    Total Energy =                        -78.5719470461085194
  @DF-RKS Final Energy:   -78.57194690429678
    Total Energy =                        -78.5719469042967802
  @DF-RKS Final Energy:   -78.57195378259198
    Total Energy =                        -78.5719537825919758
  @DF-RKS Final Energy:   -78.57195147434915
    Total Energy =                        -78.5719514743491487
  @DF-RKS Final Energy:   -78.57194641583744
    Total Energy =                        -78.5719464158374450
  @DF-RKS Final Energy:   -78.57194644346778
    Total Energy =                        -78.5719464434677946
  @DF-RKS Final Energy:   -78.57195506802751
    Total Energy =                        -78.5719550680275063
  @DF-RKS Final Energy:   -78.57195493652610
    Total Energy =                        -78.5719549365260974
  @DF-RKS Final Energy:   -78.57195340431127
    Total Energy =                        -78.5719534043112731
  @DF-RKS Final Energy:   -78.57195182009390
    Total Energy =                        -78.5719518200939007
  @DF-RKS Final Energy:   -78.57195310580964
    Total Energy =                        -78.5719531058096265
  @DF-RKS Final Energy:   -78.57195309892712
    Total Energy =                        -78.5719530989271391
  @DF-RKS Final Energy:   -78.57195511055423
    Total Energy =                        -78.5719551105542280
  Basis Set: AUG-CC-PV(Q+D)Z
    Blend: AUG-CC-PV(Q+D)Z
  Basis Set: (AUG-CC-PV(Q+D)Z AUX)
    Blend: AUG-CC-PVQZ-JKFIT
  @DF-RKS Final Energy:   -78.57195158999087
    Total Energy =                        -78.5719515899908743
  Basis Set: AUG-CC-PV(Q+D)Z
    Blend: AUG-CC-PV(Q+D)Z
  Basis Set: (AUG-CC-PV(Q+D)Z AUX)
    Blend: AUG-CC-PVQZ-JKFIT
  @DF-RKS Final Energy:   -78.57195409375782
    Total Energy =                        -78.5719540937578245
  Multiplicity = 1
  Basis Set: AUG-CC-PV(Q+D)Z
    Blend: AUG-CC-PV(Q+D)Z
  Basis Set: (AUG-CC-PV(Q+D)Z AUX)
    Blend: AUG-CC-PVQZ-JKFIT
  @DF-RKS Final Energy:   -78.57195426908601
    Total Energy =                        -78.5719542690860067
    Molecular point group: c2v

    Geometry (in Angstrom), charge = 0, multiplicity = 1:

       Center              X                  Y                   Z               Mass
    ------------   -----------------  -----------------  -----------------  -----------------
         C           -0.000204817217     0.000000000000    -0.661018412249    12.000000000000
         C           -0.000204817217     0.000000000000     0.661018412249    12.000000000000
         H            0.922513154184     0.000000000000     1.225692720046     1.007825032230
         H           -0.920074430665     0.000000000000     1.228328314388     1.007825032230
         H            0.922513154184     0.000000000000    -1.225692720046     1.007825032230
         H           -0.920074430665     0.000000000000    -1.228328314388     1.007825032230

  Charge       = 0
  Multiplicity = 1
  Basis Set: AUG-CC-PV(Q+D)Z
    Blend: AUG-CC-PV(Q+D)Z
  Basis Set: (AUG-CC-PV(Q+D)Z AUX)
    Blend: AUG-CC-PVQZ-JKFIT

    Orbital Energies [Eh]
    ---------------------

    Doubly Occupied:

       1A1   -10.340966     1B2   -10.340053     2A1    -0.886800
       2B2    -0.693658     3A1    -0.579253     4A1    -0.525616
       3B2    -0.453633     1B1    -0.375963

  @DF-RKS Final Energy:   -78.57195426281720

   => Energetics <=

    Nuclear Repulsion Energy =             33.5515359272831759
    One-Electron Energy =                -170.6138984662188136
    Two-Electron Energy =                  66.8855862929429179
    DFT Exchange-Correlation Energy =      -8.4600621019473241
    Empirical Dispersion Energy =           0.0000000000000000
    VV10 Nonlocal Energy =                  0.0648840851228555
    Total Energy =                        -78.5719542628172007

  Dipole Moment: [D]
     X:    -0.0006      Y:     0.0000      Z:    -0.0000     Total:     0.0006

  Vibration                       7                   8                   9
  Freq [cm^-1]                 781.5110            957.2384           1003.0980
  Irrep                          B3u                 B2u                 B3g
  Reduced mass [u]              1.0408              1.1607              1.5174
  Force const [mDyne/A]         0.3745              0.6266              0.8996

  Vibration                       10                  11                  12
  Freq [cm^-1]                1133.2235           1386.0664           1431.3282
  Irrep                           Au                 B2g                  Ag
  Reduced mass [u]              1.0078              1.5334              1.2248
  Force const [mDyne/A]         0.7625              1.7356              1.4785

  Vibration                       13                  14                  15
  Freq [cm^-1]                1487.2690           1746.6565           3164.0204
  Irrep                          B1u                  Ag                  Ag
  Reduced mass [u]              1.1118              3.1688              1.0686
  Force const [mDyne/A]         1.4490              5.6959              6.3030

  Vibration                       16                  17                  18
  Freq [cm^-1]                3191.1622           3225.7596           3288.4172
  Irrep                          B1u                 B2g                 B3u
  Reduced mass [u]              1.0478              1.1105              1.1199
  Force const [mDyne/A]         6.2870              6.8081              7.1349

  ==> Thermochemistry Components <==

  Entropy, S
    Electronic S            0.000 [cal/(mol K)]        0.000 [J/(mol K)]       0.00000000 [mEh/K] (multiplicity = 1)
    Translational S        35.927 [cal/(mol K)]      150.318 [J/(mol K)]       0.05725309 [mEh/K] (mol. weight = 28.0313 [u], P = 101325.00 [Pa])
    Rotational S           15.829 [cal/(mol K)]       66.227 [J/(mol K)]       0.02522467 [mEh/K] (symmetry no. = 4)
    Vibrational S           0.532 [cal/(mol K)]        2.226 [J/(mol K)]       0.00084796 [mEh/K]
  Total S                  52.288 [cal/(mol K)]      218.772 [J/(mol K)]       0.08332572 [mEh/K]
  Correction S              0.000 [cal/(mol K)]        0.000 [J/(mol K)]       0.00000000 [mEh/K]

  Constant volume heat capacity, Cv
    Electronic Cv           0.000 [cal/(mol K)]        0.000 [J/(mol K)]       0.00000000 [mEh/K]
    Translational Cv        2.981 [cal/(mol K)]       12.472 [J/(mol K)]       0.00475022 [mEh/K]
    Rotational Cv           2.981 [cal/(mol K)]       12.472 [J/(mol K)]       0.00475022 [mEh/K]
    Vibrational Cv          2.050 [cal/(mol K)]        8.578 [J/(mol K)]       0.00326729 [mEh/K]
  Total Cv                  8.012 [cal/(mol K)]       33.522 [J/(mol K)]       0.01276772 [mEh/K]
  Correction Cv             0.000 [cal/(mol K)]        0.000 [J/(mol K)]       0.00000000 [mEh/K]

  Constant pressure heat capacity, Cp
    Electronic Cp           0.000 [cal/(mol K)]        0.000 [J/(mol K)]       0.00000000 [mEh/K]
    Translational Cp        4.968 [cal/(mol K)]       20.786 [J/(mol K)]       0.00791703 [mEh/K]
    Rotational Cp           2.981 [cal/(mol K)]       12.472 [J/(mol K)]       0.00475022 [mEh/K]
    Vibrational Cp          2.050 [cal/(mol K)]        8.578 [J/(mol K)]       0.00326729 [mEh/K]
  Total Cp                  9.999 [cal/(mol K)]       41.836 [J/(mol K)]       0.01593453 [mEh/K]
  Correction Cp             0.000 [cal/(mol K)]        0.000 [J/(mol K)]       0.00000000 [mEh/K]

  ==> Thermochemistry Energy Analysis <==

  Raw electronic energy, E0
  Total E0, Electronic energy at well bottom at 0 [K]                  -78.57195554 [Eh]

  Zero-point energy, ZPE_vib = Sum_i nu_i / 2
    Electronic ZPE          0.000 [kcal/mol]        0.000 [kJ/mol]       0.00000000 [Eh]
    Translational ZPE       0.000 [kcal/mol]        0.000 [kJ/mol]       0.00000000 [Eh]
    Rotational ZPE          0.000 [kcal/mol]        0.000 [kJ/mol]       0.00000000 [Eh]
    Vibrational ZPE        32.588 [kcal/mol]      136.349 [kJ/mol]       0.05193254 [Eh]       11397.875 [cm^-1]
  Correction ZPE           32.588 [kcal/mol]      136.349 [kJ/mol]       0.05193254 [Eh]       11397.875 [cm^-1]
  Total ZPE, Electronic energy at 0 [K]                                -78.52002300 [Eh]

  Thermal Energy, E (includes ZPE)
    Electronic E            0.000 [kcal/mol]        0.000 [kJ/mol]       0.00000000 [Eh]
    Translational E         0.889 [kcal/mol]        3.718 [kJ/mol]       0.00141628 [Eh]
    Rotational E            0.889 [kcal/mol]        3.718 [kJ/mol]       0.00141628 [Eh]
    Vibrational E          32.718 [kcal/mol]      136.892 [kJ/mol]       0.05213948 [Eh]
  Correction E             34.495 [kcal/mol]      144.329 [kJ/mol]       0.05497204 [Eh]
  Total E, Electronic energy at  298.15 [K]                            -78.51698351 [Eh]

  Enthalpy, H_trans = E_trans + k_B * T
    Electronic H            0.000 [kcal/mol]        0.000 [kJ/mol]       0.00000000 [Eh]
    Translational H         1.481 [kcal/mol]        6.197 [kJ/mol]       0.00236046 [Eh]
    Rotational H            0.889 [kcal/mol]        3.718 [kJ/mol]       0.00141628 [Eh]
    Vibrational H          32.718 [kcal/mol]      136.892 [kJ/mol]       0.05213948 [Eh]
  Correction H             35.088 [kcal/mol]      146.808 [kJ/mol]       0.05591622 [Eh]
  Total H, Enthalpy at  298.15 [K]                                     -78.51603932 [Eh]

  Gibbs free energy, G = H - T * S
    Electronic G            0.000 [kcal/mol]        0.000 [kJ/mol]       0.00000000 [Eh]
    Translational G        -9.230 [kcal/mol]      -38.620 [kJ/mol]      -0.01470955 [Eh]
    Rotational G           -3.831 [kcal/mol]      -16.027 [kJ/mol]      -0.00610446 [Eh]
    Vibrational G          32.559 [kcal/mol]      136.228 [kJ/mol]       0.05188666 [Eh]
  Correction G             19.498 [kcal/mol]       81.581 [kJ/mol]       0.03107266 [Eh]
  Total G, Free enthalpy at  298.15 [K]                                -78.54088289 [Eh]

*** Psi4 exiting successfully. Buy a developer a beer!
