                               Psi4 1.3.2 release

  ==> Input File <==

--------------------------------------------------------------------------
memory 144 GB

molecule {
0 1
C 0.0000000000 0.0000000000 0.0000000000
Cl 0.0000000000 0.0000000000 1.7182578700
Cl 1.6229007750 0.0000000000 -0.5644494507
}

set dynamic_level 1
set basis aug-cc-pV(Q+d)Z

optimize("wB97M-V")
frequencies("wB97M-V")
--------------------------------------------------------------------------

    Molecular point group: c2v
  Charge       = 0
  Multiplicity = 1
  Basis Set: AUG-CC-PV(Q+D)Z
    Blend: AUG-CC-PV(Q+D)Z
  Basis Set: (AUG-CC-PV(Q+D)Z AUX)
    Blend: AUG-CC-PVQZ-JKFIT
  @DF-RKS Final Energy:  -958.40802763484453
    Total Energy =                       -958.4080276348446432
    Molecular point group: c2v
  Basis Set: AUG-CC-PV(Q+D)Z
    Blend: AUG-CC-PV(Q+D)Z
  Basis Set: (AUG-CC-PV(Q+D)Z AUX)
    Blend: AUG-CC-PVQZ-JKFIT
  @DF-RKS Final Energy:  -958.40802073223358
    Total Energy =                       -958.4080207322335809
  Basis Set: AUG-CC-PV(Q+D)Z
    Blend: AUG-CC-PV(Q+D)Z
  Basis Set: (AUG-CC-PV(Q+D)Z AUX)
    Blend: AUG-CC-PVQZ-JKFIT
  @DF-RKS Final Energy:  -958.40803407163037
    Total Energy =                       -958.4080340716303681
  Basis Set: AUG-CC-PV(Q+D)Z
    Blend: AUG-CC-PV(Q+D)Z
  Basis Set: (AUG-CC-PV(Q+D)Z AUX)
    Blend: AUG-CC-PVQZ-JKFIT
  @DF-RKS Final Energy:  -958.40803258170195
    Total Energy =                       -958.4080325817018320
  @DF-RKS Final Energy:  -958.40802252644994
    Total Energy =                       -958.4080225264499404
  @DF-RKS Final Energy:  -958.40810083958308
    Total Energy =                       -958.4081008395830850
  @DF-RKS Final Energy:  -958.40809695716848
    Total Energy =                       -958.4080969571684818
  @DF-RKS Final Energy:  -958.40810423481696
    Total Energy =                       -958.4081042348170740
  @DF-RKS Final Energy:  -958.40810091130732
    Total Energy =                       -958.4081009113073151
  @DF-RKS Final Energy:  -958.40810060724800
    Total Energy =                       -958.4081006072480022
  @DF-RKS Final Energy:  -958.40811761822977
    Total Energy =                       -958.4081176182297668
  @DF-RKS Final Energy:  -958.40811739561298
    Total Energy =                       -958.4081173956130897
  @DF-RKS Final Energy:  -958.40811736163732
    Total Energy =                       -958.4081173616372098
  @DF-RKS Final Energy:  -958.40811752877505
    Total Energy =                       -958.4081175287750511
  @DF-RKS Final Energy:  -958.40811755460345
    Total Energy =                       -958.4081175546034501
  **** Optimization is complete! (in 3 steps) ****
    Final optimized geometry and variables:
  @DF-RKS Final Energy:  -958.40811761822920
    Total Energy =                       -958.4081176182291983
  @DF-RKS Final Energy:  -958.40811739561639
    Total Energy =                       -958.4081173956163866
  @DF-RKS Final Energy:  -958.40811736163994
    Total Energy =                       -958.4081173616397109
  @DF-RKS Final Energy:  -958.40811752877562
    Total Energy =                       -958.4081175287755059
  @DF-RKS Final Energy:  -958.40811755460368
    Total Energy =                       -958.4081175546036775
  @DF-RKS Final Energy:  -958.40811761823022
    Total Energy =                       -958.4081176182302215
  @DF-RKS Final Energy:  -958.40811739561639
    Total Energy =                       -958.4081173956163866
  @DF-RKS Final Energy:  -958.40811736164005
    Total Energy =                       -958.4081173616400520
  @DF-RKS Final Energy:  -958.40811752877585
    Total Energy =                       -958.4081175287758469
  Basis Set: AUG-CC-PV(Q+D)Z
    Blend: AUG-CC-PV(Q+D)Z
  Basis Set: (AUG-CC-PV(Q+D)Z AUX)
    Blend: AUG-CC-PVQZ-JKFIT
  @DF-RKS Final Energy:  -958.40811755460402
    Total Energy =                       -958.4081175546041322
  Basis Set: AUG-CC-PV(Q+D)Z
    Blend: AUG-CC-PV(Q+D)Z
  Basis Set: (AUG-CC-PV(Q+D)Z AUX)
    Blend: AUG-CC-PVQZ-JKFIT
  @DF-RKS Final Energy:  -958.40811742691267
    Total Energy =                       -958.4081174269127814
  Multiplicity = 1
  Basis Set: AUG-CC-PV(Q+D)Z
    Blend: AUG-CC-PV(Q+D)Z
  Basis Set: (AUG-CC-PV(Q+D)Z AUX)
    Blend: AUG-CC-PVQZ-JKFIT
  @DF-RKS Final Energy:  -958.40811743564677
    Total Energy =                       -958.4081174356467727
    Molecular point group: cs

    Geometry (in Angstrom), charge = 0, multiplicity = 1:

       Center              X                  Y                   Z               Mass
    ------------   -----------------  -----------------  -----------------  -----------------
         C            0.000000000000    -0.000680901491    -0.844850416318    12.000000000000
         CL           0.000000000000     1.392217930189     0.145043572036    34.968852682000
         CL           0.000000000000    -1.391984270310     0.144877435324    34.968852682000

  Charge       = 0
  Multiplicity = 1
  Basis Set: AUG-CC-PV(Q+D)Z
    Blend: AUG-CC-PV(Q+D)Z
  Basis Set: (AUG-CC-PV(Q+D)Z AUX)
    Blend: AUG-CC-PVQZ-JKFIT

    Orbital Energies [Eh]
    ---------------------

    Doubly Occupied:

       1Ap  -101.938531     2Ap  -101.938256     3Ap   -10.501876
       4Ap    -9.696854     5Ap    -9.696562     6Ap    -7.400523
       7Ap    -7.400237     1App   -7.396047     2App   -7.395750
       8Ap    -7.392871     9Ap    -7.392582    10Ap    -1.067505
      11Ap    -0.984261    12Ap    -0.724057    13Ap    -0.573666
      14Ap    -0.530422     3App   -0.526525     4App   -0.452194
      15Ap    -0.431500    16Ap    -0.361621

  @DF-RKS Final Energy:  -958.40811732221550

   => Energetics <=

    Nuclear Repulsion Energy =            118.1279930286875697
    One-Electron Energy =               -1555.7868002233003608
    Two-Electron Energy =                 526.5366805379264861
    DFT Exchange-Correlation Energy =     -47.4512770171344158
    Empirical Dispersion Energy =           0.0000000000000000
    VV10 Nonlocal Energy =                  0.1652863516052914
    Total Energy =                       -958.4081173222153893

  Dipole Moment: [D]
     X:     0.0000      Y:    -0.0079      Z:     1.1168     Total:     1.1168

  Vibration                       7                   8                   9
  Freq [cm^-1]                 338.0307            744.3453            791.0536
  Irrep                           A1                  A1                  B2
  Reduced mass [u]             29.7202             14.2315             13.8703
  Force const [mDyne/A]         2.0008              4.6457              5.1139

  ==> Thermochemistry Components <==

  Entropy, S
    Electronic S            0.000 [cal/(mol K)]        0.000 [J/(mol K)]       0.00000000 [mEh/K] (multiplicity = 1)
    Translational S        39.124 [cal/(mol K)]      163.696 [J/(mol K)]       0.06234835 [mEh/K] (mol. weight = 81.9377 [u], P = 101325.00 [Pa])
    Rotational S           22.338 [cal/(mol K)]       93.460 [J/(mol K)]       0.03559716 [mEh/K] (symmetry no. = 2)
    Vibrational S           1.694 [cal/(mol K)]        7.087 [J/(mol K)]       0.00269927 [mEh/K]
  Total S                  63.156 [cal/(mol K)]      264.243 [J/(mol K)]       0.10064478 [mEh/K]
  Correction S              0.000 [cal/(mol K)]        0.000 [J/(mol K)]       0.00000000 [mEh/K]

  Constant volume heat capacity, Cv
    Electronic Cv           0.000 [cal/(mol K)]        0.000 [J/(mol K)]       0.00000000 [mEh/K]
    Translational Cv        2.981 [cal/(mol K)]       12.472 [J/(mol K)]       0.00475022 [mEh/K]
    Rotational Cv           2.981 [cal/(mol K)]       12.472 [J/(mol K)]       0.00475022 [mEh/K]
    Vibrational Cv          3.012 [cal/(mol K)]       12.602 [J/(mol K)]       0.00479978 [mEh/K]
  Total Cv                  8.974 [cal/(mol K)]       37.545 [J/(mol K)]       0.01430022 [mEh/K]
  Correction Cv             0.000 [cal/(mol K)]        0.000 [J/(mol K)]       0.00000000 [mEh/K]

  Constant pressure heat capacity, Cp
    Electronic Cp           0.000 [cal/(mol K)]        0.000 [J/(mol K)]       0.00000000 [mEh/K]
    Translational Cp        4.968 [cal/(mol K)]       20.786 [J/(mol K)]       0.00791703 [mEh/K]
    Rotational Cp           2.981 [cal/(mol K)]       12.472 [J/(mol K)]       0.00475022 [mEh/K]
    Vibrational Cp          3.012 [cal/(mol K)]       12.602 [J/(mol K)]       0.00479978 [mEh/K]
  Total Cp                 10.961 [cal/(mol K)]       45.860 [J/(mol K)]       0.01746703 [mEh/K]
  Correction Cp             0.000 [cal/(mol K)]        0.000 [J/(mol K)]       0.00000000 [mEh/K]

  ==> Thermochemistry Energy Analysis <==

  Raw electronic energy, E0
  Total E0, Electronic energy at well bottom at 0 [K]                 -958.40811762 [Eh]

  Zero-point energy, ZPE_vib = Sum_i nu_i / 2
    Electronic ZPE          0.000 [kcal/mol]        0.000 [kJ/mol]       0.00000000 [Eh]
    Translational ZPE       0.000 [kcal/mol]        0.000 [kJ/mol]       0.00000000 [Eh]
    Rotational ZPE          0.000 [kcal/mol]        0.000 [kJ/mol]       0.00000000 [Eh]
    Vibrational ZPE         2.678 [kcal/mol]       11.206 [kJ/mol]       0.00426799 [Eh]         936.715 [cm^-1]
  Correction ZPE            2.678 [kcal/mol]       11.206 [kJ/mol]       0.00426799 [Eh]         936.715 [cm^-1]
  Total ZPE, Electronic energy at 0 [K]                               -958.40384963 [Eh]

  Thermal Energy, E (includes ZPE)
    Electronic E            0.000 [kcal/mol]        0.000 [kJ/mol]       0.00000000 [Eh]
    Translational E         0.889 [kcal/mol]        3.718 [kJ/mol]       0.00141628 [Eh]
    Rotational E            0.889 [kcal/mol]        3.718 [kJ/mol]       0.00141628 [Eh]
    Vibrational E           3.024 [kcal/mol]       12.654 [kJ/mol]       0.00481980 [Eh]
  Correction E              4.802 [kcal/mol]       20.091 [kJ/mol]       0.00765235 [Eh]
  Total E, Electronic energy at  298.15 [K]                           -958.40046527 [Eh]

  Enthalpy, H_trans = E_trans + k_B * T
    Electronic H            0.000 [kcal/mol]        0.000 [kJ/mol]       0.00000000 [Eh]
    Translational H         1.481 [kcal/mol]        6.197 [kJ/mol]       0.00236046 [Eh]
    Rotational H            0.889 [kcal/mol]        3.718 [kJ/mol]       0.00141628 [Eh]
    Vibrational H           3.024 [kcal/mol]       12.654 [kJ/mol]       0.00481980 [Eh]
  Correction H              5.394 [kcal/mol]       22.570 [kJ/mol]       0.00859654 [Eh]
  Total H, Enthalpy at  298.15 [K]                                    -958.39952108 [Eh]

  Gibbs free energy, G = H - T * S
    Electronic G            0.000 [kcal/mol]        0.000 [kJ/mol]       0.00000000 [Eh]
    Translational G       -10.184 [kcal/mol]      -42.608 [kJ/mol]      -0.01622870 [Eh]
    Rotational G           -5.771 [kcal/mol]      -24.147 [kJ/mol]      -0.00919702 [Eh]
    Vibrational G           2.519 [kcal/mol]       10.541 [kJ/mol]       0.00401501 [Eh]
  Correction G            -13.435 [kcal/mol]      -56.214 [kJ/mol]      -0.02141071 [Eh]
  Total G, Free enthalpy at  298.15 [K]                               -958.42952832 [Eh]

*** Psi4 exiting successfully. Buy a developer a beer!
