                               Psi4 1.3.2 release

  ==> Input File <==

--------------------------------------------------------------------------
memory 144 GB

molecule {
0 1
C 0.0000000000 0.0000000000 0.0000000000
F 0.0000000000 0.0000000000 1.2971000000
F 1.2538059978 0.0000000000 -0.3323235319
}

set dynamic_level 1
set basis aug-cc-pV(Q+d)Z

optimize("wB97M-V")
frequencies("wB97M-V")
--------------------------------------------------------------------------

    Molecular point group: c2v
  Charge       = 0
  Multiplicity = 1
  Basis Set: AUG-CC-PV(Q+D)Z
    Blend: AUG-CC-PV(Q+D)Z
  Basis Set: (AUG-CC-PV(Q+D)Z AUX)
    Blend: AUG-CC-PVQZ-JKFIT
  @DF-RKS Final Energy:  -237.76205555607081
    Total Energy =                       -237.7620555560708056
    Molecular point group: c2v
  Basis Set: AUG-CC-PV(Q+D)Z
    Blend: AUG-CC-PV(Q+D)Z
  Basis Set: (AUG-CC-PV(Q+D)Z AUX)
    Blend: AUG-CC-PVQZ-JKFIT
  @DF-RKS Final Energy:  -237.76206064108206
    Total Energy =                       -237.7620606410820585
  Basis Set: AUG-CC-PV(Q+D)Z
    Blend: AUG-CC-PV(Q+D)Z
  Basis Set: (AUG-CC-PV(Q+D)Z AUX)
    Blend: AUG-CC-PVQZ-JKFIT
  @DF-RKS Final Energy:  -237.76204914978209
    Total Energy =                       -237.7620491497820865
  Basis Set: AUG-CC-PV(Q+D)Z
    Blend: AUG-CC-PV(Q+D)Z
  Basis Set: (AUG-CC-PV(Q+D)Z AUX)
    Blend: AUG-CC-PVQZ-JKFIT
  @DF-RKS Final Energy:  -237.76205315712377
    Total Energy =                       -237.7620531571237734
  @DF-RKS Final Energy:  -237.76205734763204
    Total Energy =                       -237.7620573476320089
  @DF-RKS Final Energy:  -237.76206562509805
    Total Energy =                       -237.7620656250980460
  @DF-RKS Final Energy:  -237.76206568287736
    Total Energy =                       -237.7620656828773917
  @DF-RKS Final Energy:  -237.76206424987600
    Total Energy =                       -237.7620642498760049
  @DF-RKS Final Energy:  -237.76206356257302
    Total Energy =                       -237.7620635625730188
  @DF-RKS Final Energy:  -237.76206707904808
    Total Energy =                       -237.7620670790480801
  @DF-RKS Final Energy:  -237.76206755703979
    Total Energy =                       -237.7620675570397566
  @DF-RKS Final Energy:  -237.76206644623187
    Total Energy =                       -237.7620664462318416
  @DF-RKS Final Energy:  -237.76206736016394
    Total Energy =                       -237.7620673601639680
  @DF-RKS Final Energy:  -237.76206816998229
    Total Energy =                       -237.7620681699822853
  @DF-RKS Final Energy:  -237.76206634023879
    Total Energy =                       -237.7620663402387891
  @DF-RKS Final Energy:  -237.76206826398700
    Total Energy =                       -237.7620682639870040
  @DF-RKS Final Energy:  -237.76206760392532
    Total Energy =                       -237.7620676039253169
  @DF-RKS Final Energy:  -237.76206761718839
    Total Energy =                       -237.7620676171883645
  @DF-RKS Final Energy:  -237.76206797149851
    Total Energy =                       -237.7620679714985101
  @DF-RKS Final Energy:  -237.76206795355836
    Total Energy =                       -237.7620679535583861
  **** Optimization is complete! (in 4 steps) ****
    Final optimized geometry and variables:
  @DF-RKS Final Energy:  -237.76206826398681
    Total Energy =                       -237.7620682639867766
  @DF-RKS Final Energy:  -237.76206760392540
    Total Energy =                       -237.7620676039253738
  @DF-RKS Final Energy:  -237.76206761718856
    Total Energy =                       -237.7620676171885634
  @DF-RKS Final Energy:  -237.76206797149860
    Total Energy =                       -237.7620679714985954
  @DF-RKS Final Energy:  -237.76206795355839
    Total Energy =                       -237.7620679535583861
  @DF-RKS Final Energy:  -237.76206826398723
    Total Energy =                       -237.7620682639872598
  @DF-RKS Final Energy:  -237.76206760392560
    Total Energy =                       -237.7620676039256011
  @DF-RKS Final Energy:  -237.76206761718873
    Total Energy =                       -237.7620676171887339
  @DF-RKS Final Energy:  -237.76206797149902
    Total Energy =                       -237.7620679714990501
  Basis Set: AUG-CC-PV(Q+D)Z
    Blend: AUG-CC-PV(Q+D)Z
  Basis Set: (AUG-CC-PV(Q+D)Z AUX)
    Blend: AUG-CC-PVQZ-JKFIT
  @DF-RKS Final Energy:  -237.76206795355878
    Total Energy =                       -237.7620679535587840
  Basis Set: AUG-CC-PV(Q+D)Z
    Blend: AUG-CC-PV(Q+D)Z
  Basis Set: (AUG-CC-PV(Q+D)Z AUX)
    Blend: AUG-CC-PVQZ-JKFIT
  @DF-RKS Final Energy:  -237.76206769058675
    Total Energy =                       -237.7620676905867469
  Multiplicity = 1
  Basis Set: AUG-CC-PV(Q+D)Z
    Blend: AUG-CC-PV(Q+D)Z
  Basis Set: (AUG-CC-PV(Q+D)Z AUX)
    Blend: AUG-CC-PVQZ-JKFIT
  @DF-RKS Final Energy:  -237.76206769171350
    Total Energy =                       -237.7620676917134972
    Molecular point group: cs

    Geometry (in Angstrom), charge = 0, multiplicity = 1:

       Center              X                  Y                   Z               Mass
    ------------   -----------------  -----------------  -----------------  -----------------
         C            0.000000000000    -0.000622729927    -0.603911794078    12.000000000000
         F            0.000000000000     1.028545398267     0.190876988410    18.998403162730
         F            0.000000000000    -1.028152062097     0.190573045409    18.998403162730

  Charge       = 0
  Multiplicity = 1
  Basis Set: AUG-CC-PV(Q+D)Z
    Blend: AUG-CC-PV(Q+D)Z
  Basis Set: (AUG-CC-PV(Q+D)Z AUX)
    Blend: AUG-CC-PVQZ-JKFIT

    Orbital Energies [Eh]
    ---------------------

    Doubly Occupied:

       1Ap   -24.985026     2Ap   -24.984382     3Ap   -10.553454
       4Ap    -1.480832     5Ap    -1.404979     6Ap    -0.835063
       7Ap    -0.723012     1App   -0.679716     8Ap    -0.675040
       2App   -0.597949     9Ap    -0.572698    10Ap    -0.417334

  @DF-RKS Final Energy:  -237.76206765792293

   => Energetics <=

    Nuclear Repulsion Energy =             64.8169709063374455
    One-Electron Energy =                -457.2716599091654643
    Two-Electron Energy =                 173.8323719909533622
    DFT Exchange-Correlation Energy =     -19.2403653626641997
    Empirical Dispersion Energy =           0.0000000000000000
    VV10 Nonlocal Energy =                  0.1006147166158899
    Total Energy =                       -237.7620676579229269

  Dipole Moment: [D]
     X:     0.0000      Y:    -0.0080      Z:     0.5834     Total:     0.5835

  Vibration                       7                   8                   9
  Freq [cm^-1]                 678.4042           1131.9015           1248.3477
  Irrep                           A1                  B2                  A1
  Reduced mass [u]             17.7314             13.6909             13.8496
  Force const [mDyne/A]         4.8081             10.3348             12.7162

  ==> Thermochemistry Components <==

  Entropy, S
    Electronic S            0.000 [cal/(mol K)]        0.000 [J/(mol K)]       0.00000000 [mEh/K] (multiplicity = 1)
    Translational S        37.652 [cal/(mol K)]      157.535 [J/(mol K)]       0.06000175 [mEh/K] (mol. weight = 49.9968 [u], P = 101325.00 [Pa])
    Rotational S           19.432 [cal/(mol K)]       81.303 [J/(mol K)]       0.03096650 [mEh/K] (symmetry no. = 2)
    Vibrational S           0.421 [cal/(mol K)]        1.763 [J/(mol K)]       0.00067137 [mEh/K]
  Total S                  57.505 [cal/(mol K)]      240.600 [J/(mol K)]       0.09163961 [mEh/K]
  Correction S              0.000 [cal/(mol K)]        0.000 [J/(mol K)]       0.00000000 [mEh/K]

  Constant volume heat capacity, Cv
    Electronic Cv           0.000 [cal/(mol K)]        0.000 [J/(mol K)]       0.00000000 [mEh/K]
    Translational Cv        2.981 [cal/(mol K)]       12.472 [J/(mol K)]       0.00475022 [mEh/K]
    Rotational Cv           2.981 [cal/(mol K)]       12.472 [J/(mol K)]       0.00475022 [mEh/K]
    Vibrational Cv          1.300 [cal/(mol K)]        5.440 [J/(mol K)]       0.00207211 [mEh/K]
  Total Cv                  7.262 [cal/(mol K)]       30.384 [J/(mol K)]       0.01157254 [mEh/K]
  Correction Cv             0.000 [cal/(mol K)]        0.000 [J/(mol K)]       0.00000000 [mEh/K]

  Constant pressure heat capacity, Cp
    Electronic Cp           0.000 [cal/(mol K)]        0.000 [J/(mol K)]       0.00000000 [mEh/K]
    Translational Cp        4.968 [cal/(mol K)]       20.786 [J/(mol K)]       0.00791703 [mEh/K]
    Rotational Cp           2.981 [cal/(mol K)]       12.472 [J/(mol K)]       0.00475022 [mEh/K]
    Vibrational Cp          1.300 [cal/(mol K)]        5.440 [J/(mol K)]       0.00207211 [mEh/K]
  Total Cp                  9.249 [cal/(mol K)]       38.698 [J/(mol K)]       0.01473935 [mEh/K]
  Correction Cp             0.000 [cal/(mol K)]        0.000 [J/(mol K)]       0.00000000 [mEh/K]

  ==> Thermochemistry Energy Analysis <==

  Raw electronic energy, E0
  Total E0, Electronic energy at well bottom at 0 [K]                 -237.76206826 [Eh]

  Zero-point energy, ZPE_vib = Sum_i nu_i / 2
    Electronic ZPE          0.000 [kcal/mol]        0.000 [kJ/mol]       0.00000000 [Eh]
    Translational ZPE       0.000 [kcal/mol]        0.000 [kJ/mol]       0.00000000 [Eh]
    Rotational ZPE          0.000 [kcal/mol]        0.000 [kJ/mol]       0.00000000 [Eh]
    Vibrational ZPE         4.373 [kcal/mol]       18.295 [kJ/mol]       0.00696812 [Eh]        1529.327 [cm^-1]
  Correction ZPE            4.373 [kcal/mol]       18.295 [kJ/mol]       0.00696812 [Eh]        1529.327 [cm^-1]
  Total ZPE, Electronic energy at 0 [K]                               -237.75510014 [Eh]

  Thermal Energy, E (includes ZPE)
    Electronic E            0.000 [kcal/mol]        0.000 [kJ/mol]       0.00000000 [Eh]
    Translational E         0.889 [kcal/mol]        3.718 [kJ/mol]       0.00141628 [Eh]
    Rotational E            0.889 [kcal/mol]        3.718 [kJ/mol]       0.00141628 [Eh]
    Vibrational E           4.471 [kcal/mol]       18.708 [kJ/mol]       0.00712555 [Eh]
  Correction E              6.249 [kcal/mol]       26.145 [kJ/mol]       0.00995810 [Eh]
  Total E, Electronic energy at  298.15 [K]                           -237.75211016 [Eh]

  Enthalpy, H_trans = E_trans + k_B * T
    Electronic H            0.000 [kcal/mol]        0.000 [kJ/mol]       0.00000000 [Eh]
    Translational H         1.481 [kcal/mol]        6.197 [kJ/mol]       0.00236046 [Eh]
    Rotational H            0.889 [kcal/mol]        3.718 [kJ/mol]       0.00141628 [Eh]
    Vibrational H           4.471 [kcal/mol]       18.708 [kJ/mol]       0.00712555 [Eh]
  Correction H              6.841 [kcal/mol]       28.624 [kJ/mol]       0.01090229 [Eh]
  Total H, Enthalpy at  298.15 [K]                                    -237.75116598 [Eh]

  Gibbs free energy, G = H - T * S
    Electronic G            0.000 [kcal/mol]        0.000 [kJ/mol]       0.00000000 [Eh]
    Translational G        -9.745 [kcal/mol]      -40.772 [kJ/mol]      -0.01552906 [Eh]
    Rotational G           -4.905 [kcal/mol]      -20.522 [kJ/mol]      -0.00781638 [Eh]
    Vibrational G           4.346 [kcal/mol]       18.183 [kJ/mol]       0.00692538 [Eh]
  Correction G            -10.304 [kcal/mol]      -43.111 [kJ/mol]      -0.01642007 [Eh]
  Total G, Free enthalpy at  298.15 [K]                               -237.77848833 [Eh]

*** Psi4 exiting successfully. Buy a developer a beer!
