                               Psi4 1.3.2 release

  ==> Input File <==

--------------------------------------------------------------------------
memory 144 GB

molecule {
0 1
H 0.0000000000 0.0000000000 0.0000000000
C 0.0000000000 0.0000000000 1.0879000000
H 1.0256819563 0.0000000000 1.4505333333
H -0.5128409782 0.8882666304 1.4505333333
H -0.5128409782 -0.8882666304 1.4505333333
}

set basis aug-cc-pV(Q+d)Z

frequencies("wB97M-V")
optimize("wB97M-V")
frequencies("wB97M-V")
--------------------------------------------------------------------------

    Molecular point group: c2v
  Charge       = 0
  Multiplicity = 1
  Basis Set: AUG-CC-PV(Q+D)Z
    Blend: AUG-CC-PV(Q+D)Z
  Basis Set: (AUG-CC-PV(Q+D)Z AUX)
    Blend: AUG-CC-PVQZ-JKFIT
  @DF-RKS Final Energy:   -40.49520229593255
    Total Energy =                        -40.4952022959325504
    Molecular point group: c2v
  Basis Set: AUG-CC-PV(Q+D)Z
    Blend: AUG-CC-PV(Q+D)Z
  Basis Set: (AUG-CC-PV(Q+D)Z AUX)
    Blend: AUG-CC-PVQZ-JKFIT
  @DF-RKS Final Energy:   -40.49520485267306
    Total Energy =                        -40.4952048526730692
  Basis Set: AUG-CC-PV(Q+D)Z
    Blend: AUG-CC-PV(Q+D)Z
  Basis Set: (AUG-CC-PV(Q+D)Z AUX)
    Blend: AUG-CC-PVQZ-JKFIT
  @DF-RKS Final Energy:   -40.49519319321172
    Total Energy =                        -40.4951931932117191
  Basis Set: AUG-CC-PV(Q+D)Z
    Blend: AUG-CC-PV(Q+D)Z
  Basis Set: (AUG-CC-PV(Q+D)Z AUX)
    Blend: AUG-CC-PVQZ-JKFIT
  @DF-RKS Final Energy:   -40.49519564835676
    Total Energy =                        -40.4951956483567699
  @DF-RKS Final Energy:   -40.49520449054803
    Total Energy =                        -40.4952044905480264
  @DF-RKS Final Energy:   -40.49519623881358
    Total Energy =                        -40.4951962388135840
  @DF-RKS Final Energy:   -40.49520388361022
    Total Energy =                        -40.4952038836102162
  @DF-RKS Final Energy:   -40.49520485319910
    Total Energy =                        -40.4952048531990982
  @DF-RKS Final Energy:   -40.49519319585820
    Total Energy =                        -40.4951931958581923
  @DF-RKS Final Energy:   -40.49520229593281
    Total Energy =                        -40.4952022959328133
  @DF-RKS Final Energy:   -40.49520485267292
    Total Energy =                        -40.4952048526729271
  @DF-RKS Final Energy:   -40.49519319321180
    Total Energy =                        -40.4951931932118043
  @DF-RKS Final Energy:   -40.49519564835677
    Total Energy =                        -40.4951956483567699
  @DF-RKS Final Energy:   -40.49520449054810
    Total Energy =                        -40.4952044905481046
  @DF-RKS Final Energy:   -40.49519623881354
    Total Energy =                        -40.4951962388135414
  @DF-RKS Final Energy:   -40.49520388361025
    Total Energy =                        -40.4952038836102517
  @DF-RKS Final Energy:   -40.49520485319920
    Total Energy =                        -40.4952048531992048
  @DF-RKS Final Energy:   -40.49519319585831
    Total Energy =                        -40.4951931958583060
  @DF-RKS Final Energy:   -40.49519871673657
    Total Energy =                        -40.4951987167365672
  @DF-RKS Final Energy:   -40.49520154267950
    Total Energy =                        -40.4952015426795029

  Vibration                       1                   8                   9
  Freq [cm^-1]                1595.8264i          1326.4208           1469.7182
  Irrep                           A2                  A1                  B2
  Reduced mass [u]              1.0078              1.1794              1.1878
  Force const [mDyne/A]        -1.5122              1.2226              1.5117

  Vibration                       10                  11                  12
  Freq [cm^-1]                1509.9817           1555.5951           3035.9701
  Irrep                           B1                  A1                  A1
  Reduced mass [u]              1.1700              1.0078              1.0078
  Force const [mDyne/A]         1.5717              1.4369              5.4731

  Vibration                       13                  14                  15
  Freq [cm^-1]                3141.5126           3218.8278           3239.9322
  Irrep                           A1                  B1                  B2
  Reduced mass [u]              1.1013              1.1096              1.0941
  Force const [mDyne/A]         6.4035              6.7736              6.7666

    Irrep   Nso     Nmo     Nalpha   Nbeta   Ndocc  Nsocc

    Irrep   Nso     Nmo     Nalpha   Nbeta   Ndocc  Nsocc

    Irrep   Nso     Nmo     Nalpha   Nbeta   Ndocc  Nsocc

    Irrep   Nso     Nmo     Nalpha   Nbeta   Ndocc  Nsocc

    Irrep   Nso     Nmo     Nalpha   Nbeta   Ndocc  Nsocc

    Irrep   Nso     Nmo     Nalpha   Nbeta   Ndocc  Nsocc

    Irrep   Nso     Nmo     Nalpha   Nbeta   Ndocc  Nsocc

    Irrep   Nso     Nmo     Nalpha   Nbeta   Ndocc  Nsocc

    Irrep   Nso     Nmo     Nalpha   Nbeta   Ndocc  Nsocc

    Irrep   Nso     Nmo     Nalpha   Nbeta   Ndocc  Nsocc

    Irrep   Nso     Nmo     Nalpha   Nbeta   Ndocc  Nsocc

    Irrep   Nso     Nmo     Nalpha   Nbeta   Ndocc  Nsocc

    Irrep   Nso     Nmo     Nalpha   Nbeta   Ndocc  Nsocc

    Irrep   Nso     Nmo     Nalpha   Nbeta   Ndocc  Nsocc

    Irrep   Nso     Nmo     Nalpha   Nbeta   Ndocc  Nsocc

    Irrep   Nso     Nmo     Nalpha   Nbeta   Ndocc  Nsocc

    Irrep   Nso     Nmo     Nalpha   Nbeta   Ndocc  Nsocc

    Irrep   Nso     Nmo     Nalpha   Nbeta   Ndocc  Nsocc

  **** Optimization is complete! (in 2 steps) ****
    Final optimized geometry and variables:

    Irrep   Nso     Nmo     Nalpha   Nbeta   Ndocc  Nsocc

    Irrep   Nso     Nmo     Nalpha   Nbeta   Ndocc  Nsocc

    Irrep   Nso     Nmo     Nalpha   Nbeta   Ndocc  Nsocc

    Irrep   Nso     Nmo     Nalpha   Nbeta   Ndocc  Nsocc

    Irrep   Nso     Nmo     Nalpha   Nbeta   Ndocc  Nsocc

    Irrep   Nso     Nmo     Nalpha   Nbeta   Ndocc  Nsocc

    Irrep   Nso     Nmo     Nalpha   Nbeta   Ndocc  Nsocc

    Irrep   Nso     Nmo     Nalpha   Nbeta   Ndocc  Nsocc

    Irrep   Nso     Nmo     Nalpha   Nbeta   Ndocc  Nsocc

     Irrep 1: 4
     Irrep 2: 1
     Irrep 3: 2
     Irrep 4: 2

      Irrep 1: 20
      Irrep 2: 1
      Irrep 3: 4
      Irrep 4: 4

    Irrep   Nso     Nmo     Nalpha   Nbeta   Ndocc  Nsocc

    Irrep   Nso     Nmo     Nalpha   Nbeta   Ndocc  Nsocc

    Irrep   Nso     Nmo     Nalpha   Nbeta   Ndocc  Nsocc

    Irrep   Nso     Nmo     Nalpha   Nbeta   Ndocc  Nsocc

    Irrep   Nso     Nmo     Nalpha   Nbeta   Ndocc  Nsocc

    Irrep   Nso     Nmo     Nalpha   Nbeta   Ndocc  Nsocc

    Irrep   Nso     Nmo     Nalpha   Nbeta   Ndocc  Nsocc

    Irrep   Nso     Nmo     Nalpha   Nbeta   Ndocc  Nsocc

    Irrep   Nso     Nmo     Nalpha   Nbeta   Ndocc  Nsocc

    Irrep   Nso     Nmo     Nalpha   Nbeta   Ndocc  Nsocc

    Irrep   Nso     Nmo     Nalpha   Nbeta   Ndocc  Nsocc

  @DF-RKS Final Energy:   -40.49520597513862
    Total Energy =                        -40.4952059751386173

    Irrep   Nso     Nmo     Nalpha   Nbeta   Ndocc  Nsocc

  @DF-RKS Final Energy:   -40.49520203522106
    Total Energy =                        -40.4952020352210553

    Irrep   Nso     Nmo     Nalpha   Nbeta   Ndocc  Nsocc

  @DF-RKS Final Energy:   -40.49520199240933
    Total Energy =                        -40.4952019924093420

    Irrep   Nso     Nmo     Nalpha   Nbeta   Ndocc  Nsocc

  @DF-RKS Final Energy:   -40.49520363049426
    Total Energy =                        -40.4952036304942595

    Irrep   Nso     Nmo     Nalpha   Nbeta   Ndocc  Nsocc

  @DF-RKS Final Energy:   -40.49520375240959
    Total Energy =                        -40.4952037524095942

    Irrep   Nso     Nmo     Nalpha   Nbeta   Ndocc  Nsocc

  @DF-RKS Final Energy:   -40.49520161261593
    Total Energy =                        -40.4952016126159293

    Irrep   Nso     Nmo     Nalpha   Nbeta   Ndocc  Nsocc

  @DF-RKS Final Energy:   -40.49520142140907
    Total Energy =                        -40.4952014214090710

    Irrep   Nso     Nmo     Nalpha   Nbeta   Ndocc  Nsocc

  @DF-RKS Final Energy:   -40.49520252755811
    Total Energy =                        -40.4952025275581065

    Irrep   Nso     Nmo     Nalpha   Nbeta   Ndocc  Nsocc

  @DF-RKS Final Energy:   -40.49520248999593
    Total Energy =                        -40.4952024899959184

    Irrep   Nso     Nmo     Nalpha   Nbeta   Ndocc  Nsocc

  @DF-RKS Final Energy:   -40.49520602456943
    Total Energy =                        -40.4952060245694128

    Irrep   Nso     Nmo     Nalpha   Nbeta   Ndocc  Nsocc

  @DF-RKS Final Energy:   -40.49520601086456
    Total Energy =                        -40.4952060108645640

    Irrep   Nso     Nmo     Nalpha   Nbeta   Ndocc  Nsocc

  @DF-RKS Final Energy:   -40.49520937128352
    Total Energy =                        -40.4952093712835222

    Irrep   Nso     Nmo     Nalpha   Nbeta   Ndocc  Nsocc

  @DF-RKS Final Energy:   -40.49520708835279
    Total Energy =                        -40.4952070883527924

    Irrep   Nso     Nmo     Nalpha   Nbeta   Ndocc  Nsocc

  @DF-RKS Final Energy:   -40.49520322557884
    Total Energy =                        -40.4952032255788410

    Irrep   Nso     Nmo     Nalpha   Nbeta   Ndocc  Nsocc

  @DF-RKS Final Energy:   -40.49520212647882
    Total Energy =                        -40.4952021264788158

    Irrep   Nso     Nmo     Nalpha   Nbeta   Ndocc  Nsocc

  @DF-RKS Final Energy:   -40.49520212617255
    Total Energy =                        -40.4952021261725505
  Basis Set: AUG-CC-PV(Q+D)Z
    Blend: AUG-CC-PV(Q+D)Z

    Irrep   Nso     Nmo     Nalpha   Nbeta   Ndocc  Nsocc

  Basis Set: (AUG-CC-PV(Q+D)Z AUX)
    Blend: AUG-CC-PVQZ-JKFIT
  @DF-RKS Final Energy:   -40.49520341866414
    Total Energy =                        -40.4952034186641399
  Basis Set: AUG-CC-PV(Q+D)Z
    Blend: AUG-CC-PV(Q+D)Z

    Irrep   Nso     Nmo     Nalpha   Nbeta   Ndocc  Nsocc

  Basis Set: (AUG-CC-PV(Q+D)Z AUX)
    Blend: AUG-CC-PVQZ-JKFIT
  @DF-RKS Final Energy:   -40.49520690052481
    Total Energy =                        -40.4952069005248134
  Multiplicity = 1
  Basis Set: AUG-CC-PV(Q+D)Z
    Blend: AUG-CC-PV(Q+D)Z

    Irrep   Nso     Nmo     Nalpha   Nbeta   Ndocc  Nsocc

  Basis Set: (AUG-CC-PV(Q+D)Z AUX)
    Blend: AUG-CC-PVQZ-JKFIT
  @DF-RKS Final Energy:   -40.49520408468159
    Total Energy =                        -40.4952040846815962
    Molecular point group: cs

    Geometry (in Angstrom), charge = 0, multiplicity = 1:

       Center              X                  Y                   Z               Mass
    ------------   -----------------  -----------------  -----------------  -----------------
         H            0.000000000000     0.885547442626    -0.627396631037     1.007825032230
         C            0.000000000000     0.000538951920     0.000000185653    12.000000000000
         H            0.887020023879    -0.001736121991     0.627209109302     1.007825032230
         H           -0.887020023879    -0.001736121991     0.627209109302     1.007825032230
         H            0.000000000000    -0.888492406825    -0.627023798107     1.007825032230

  Charge       = 0
  Multiplicity = 1
  Basis Set: AUG-CC-PV(Q+D)Z
    Blend: AUG-CC-PV(Q+D)Z

    Irrep   Nso     Nmo     Nalpha   Nbeta   Ndocc  Nsocc

  Basis Set: (AUG-CC-PV(Q+D)Z AUX)
    Blend: AUG-CC-PVQZ-JKFIT

    Orbital Energies [Eh]
    ---------------------

    Doubly Occupied:

       1Ap   -10.318805     2Ap    -0.813050     3Ap    -0.493864
       1App   -0.493286     4Ap    -0.492708

  @DF-RKS Final Energy:   -40.49520408913873

   => Energetics <=

    Nuclear Repulsion Energy =             13.4802962019165626
    One-Electron Energy =                 -79.8990579186195617
    Two-Electron Energy =                  30.4950231448703128
    DFT Exchange-Correlation Energy =      -4.6128110179509640
    Empirical Dispersion Energy =           0.0000000000000000
    VV10 Nonlocal Energy =                  0.0413455006449267
    Total Energy =                        -40.4952040891387171

  Dipole Moment: [D]
     X:     0.0000      Y:    -0.0003      Z:    -0.0000     Total:     0.0003

  Vibration                       1                   8                   9
  Freq [cm^-1]                1613.7797i          1317.4865           1450.1562
  Irrep                           A2                  A1                  B2
  Reduced mass [u]              1.0078              1.1794              1.1847
  Force const [mDyne/A]        -1.5464              1.2061              1.4678

  Vibration                       10                  11                  12
  Freq [cm^-1]                1490.4497           1556.9581           3045.7532
  Irrep                           B1                  A1                  A1
  Reduced mass [u]              1.1712              1.0078              1.0078
  Force const [mDyne/A]         1.5329              1.4394              5.5085

  Vibration                       13                  14                  15
  Freq [cm^-1]                3154.2316           3223.0204           3239.6349
  Irrep                           A1                  B1                  B2
  Reduced mass [u]              1.1013              1.1085              1.0967
  Force const [mDyne/A]         6.4555              6.7845              6.7817

  ==> Thermochemistry Components <==

  Entropy, S
    Electronic S            0.000 [cal/(mol K)]        0.000 [J/(mol K)]       0.00000000 [mEh/K] (multiplicity = 1)
    Translational S        34.261 [cal/(mol K)]      143.349 [J/(mol K)]       0.05459877 [mEh/K] (mol. weight = 16.0313 [u], P = 101325.00 [Pa])
    Rotational S           13.660 [cal/(mol K)]       57.155 [J/(mol K)]       0.02176921 [mEh/K] (symmetry no. = 2)
    Vibrational S           0.061 [cal/(mol K)]        0.257 [J/(mol K)]       0.00009791 [mEh/K]
  Total S                  47.983 [cal/(mol K)]      200.761 [J/(mol K)]       0.07646590 [mEh/K]
  Correction S              0.000 [cal/(mol K)]        0.000 [J/(mol K)]       0.00000000 [mEh/K]

  Constant volume heat capacity, Cv
    Electronic Cv           0.000 [cal/(mol K)]        0.000 [J/(mol K)]       0.00000000 [mEh/K]
    Translational Cv        2.981 [cal/(mol K)]       12.472 [J/(mol K)]       0.00475022 [mEh/K]
    Rotational Cv           2.981 [cal/(mol K)]       12.472 [J/(mol K)]       0.00475022 [mEh/K]
    Vibrational Cv          0.368 [cal/(mol K)]        1.540 [J/(mol K)]       0.00058641 [mEh/K]
  Total Cv                  6.330 [cal/(mol K)]       26.483 [J/(mol K)]       0.01008684 [mEh/K]
  Correction Cv             0.000 [cal/(mol K)]        0.000 [J/(mol K)]       0.00000000 [mEh/K]

  Constant pressure heat capacity, Cp
    Electronic Cp           0.000 [cal/(mol K)]        0.000 [J/(mol K)]       0.00000000 [mEh/K]
    Translational Cp        4.968 [cal/(mol K)]       20.786 [J/(mol K)]       0.00791703 [mEh/K]
    Rotational Cp           2.981 [cal/(mol K)]       12.472 [J/(mol K)]       0.00475022 [mEh/K]
    Vibrational Cp          0.368 [cal/(mol K)]        1.540 [J/(mol K)]       0.00058641 [mEh/K]
  Total Cp                  8.317 [cal/(mol K)]       34.797 [J/(mol K)]       0.01325365 [mEh/K]
  Correction Cp             0.000 [cal/(mol K)]        0.000 [J/(mol K)]       0.00000000 [mEh/K]

  ==> Thermochemistry Energy Analysis <==

  Raw electronic energy, E0
  Total E0, Electronic energy at well bottom at 0 [K]                  -40.49520814 [Eh]

  Zero-point energy, ZPE_vib = Sum_i nu_i / 2
    Electronic ZPE          0.000 [kcal/mol]        0.000 [kJ/mol]       0.00000000 [Eh]
    Translational ZPE       0.000 [kcal/mol]        0.000 [kJ/mol]       0.00000000 [Eh]
    Rotational ZPE          0.000 [kcal/mol]        0.000 [kJ/mol]       0.00000000 [Eh]
    Vibrational ZPE        26.415 [kcal/mol]      110.521 [kJ/mol]       0.04209528 [Eh]        9238.845 [cm^-1]
  Correction ZPE           26.415 [kcal/mol]      110.521 [kJ/mol]       0.04209528 [Eh]        9238.845 [cm^-1]
  Total ZPE, Electronic energy at 0 [K]                                -40.45311286 [Eh]

  Thermal Energy, E (includes ZPE)
    Electronic E            0.000 [kcal/mol]        0.000 [kJ/mol]       0.00000000 [Eh]
    Translational E         0.889 [kcal/mol]        3.718 [kJ/mol]       0.00141628 [Eh]
    Rotational E            0.889 [kcal/mol]        3.718 [kJ/mol]       0.00141628 [Eh]
    Vibrational E          26.431 [kcal/mol]      110.588 [kJ/mol]       0.04212074 [Eh]
  Correction E             28.209 [kcal/mol]      118.025 [kJ/mol]       0.04495330 [Eh]
  Total E, Electronic energy at  298.15 [K]                            -40.45025484 [Eh]

  Enthalpy, H_trans = E_trans + k_B * T
    Electronic H            0.000 [kcal/mol]        0.000 [kJ/mol]       0.00000000 [Eh]
    Translational H         1.481 [kcal/mol]        6.197 [kJ/mol]       0.00236046 [Eh]
    Rotational H            0.889 [kcal/mol]        3.718 [kJ/mol]       0.00141628 [Eh]
    Vibrational H          26.431 [kcal/mol]      110.588 [kJ/mol]       0.04212074 [Eh]
  Correction H             28.801 [kcal/mol]      120.504 [kJ/mol]       0.04589748 [Eh]
  Total H, Enthalpy at  298.15 [K]                                     -40.44931066 [Eh]

  Gibbs free energy, G = H - T * S
    Electronic G            0.000 [kcal/mol]        0.000 [kJ/mol]       0.00000000 [Eh]
    Translational G        -8.734 [kcal/mol]      -36.542 [kJ/mol]      -0.01391816 [Eh]
    Rotational G           -3.184 [kcal/mol]      -13.322 [kJ/mol]      -0.00507421 [Eh]
    Vibrational G          26.413 [kcal/mol]      110.511 [kJ/mol]       0.04209155 [Eh]
  Correction G             14.495 [kcal/mol]       60.647 [kJ/mol]       0.02309917 [Eh]
  Total G, Free enthalpy at  298.15 [K]                                -40.47210897 [Eh]

*** Psi4 exiting successfully. Buy a developer a beer!
