                               Psi4 1.3.2 release

  ==> Input File <==

--------------------------------------------------------------------------
memory 144 GB

molecule {
0 1
Cl 0.0000000000 0.0000000000 0.0000000000
Cl 0.0000000000 0.0000000000 1.9965761200
}

set dynamic_level 1
set basis aug-cc-pV(Q+d)Z

optimize("wB97M-V")
frequencies("wB97M-V")
--------------------------------------------------------------------------

    Molecular point group: d2h
  Charge       = 0
  Multiplicity = 1
  Basis Set: AUG-CC-PV(Q+D)Z
    Blend: AUG-CC-PV(Q+D)Z
  Basis Set: (AUG-CC-PV(Q+D)Z AUX)
    Blend: AUG-CC-PVQZ-JKFIT
  @DF-RKS Final Energy:  -920.37178995113254
    Total Energy =                       -920.3717899511325413
    Molecular point group: d2h
  Basis Set: AUG-CC-PV(Q+D)Z
    Blend: AUG-CC-PV(Q+D)Z
  Basis Set: (AUG-CC-PV(Q+D)Z AUX)
    Blend: AUG-CC-PVQZ-JKFIT
  @DF-RKS Final Energy:  -920.37178509508192
    Total Energy =                       -920.3717850950819184
  Basis Set: AUG-CC-PV(Q+D)Z
    Blend: AUG-CC-PV(Q+D)Z
  Basis Set: (AUG-CC-PV(Q+D)Z AUX)
    Blend: AUG-CC-PVQZ-JKFIT
  @DF-RKS Final Energy:  -920.37179449841199
    Total Energy =                       -920.3717944984121004
  Basis Set: AUG-CC-PV(Q+D)Z
    Blend: AUG-CC-PV(Q+D)Z
  Basis Set: (AUG-CC-PV(Q+D)Z AUX)
    Blend: AUG-CC-PVQZ-JKFIT
  @DF-RKS Final Energy:  -920.37182042059158
    Total Energy =                       -920.3718204205914617
  @DF-RKS Final Energy:  -920.37181849381943
    Total Energy =                       -920.3718184938194327
  @DF-RKS Final Energy:  -920.37182203727298
    Total Energy =                       -920.3718220372729775
  @DF-RKS Final Energy:  -920.37182535113732
    Total Energy =                       -920.3718253511373177
  @DF-RKS Final Energy:  -920.37182523372837
    Total Energy =                       -920.3718252337283730
  @DF-RKS Final Energy:  -920.37182515273116
    Total Energy =                       -920.3718251527311622
  **** Optimization is complete! (in 3 steps) ****
    Final optimized geometry and variables:
  @DF-RKS Final Energy:  -920.37182535113777
    Total Energy =                       -920.3718253511376588
  @DF-RKS Final Energy:  -920.37182523372894
    Total Energy =                       -920.3718252337289414
  Basis Set: AUG-CC-PV(Q+D)Z
    Blend: AUG-CC-PV(Q+D)Z
  Basis Set: (AUG-CC-PV(Q+D)Z AUX)
    Blend: AUG-CC-PVQZ-JKFIT
  @DF-RKS Final Energy:  -920.37182515273150
    Total Energy =                       -920.3718251527316170
  Basis Set: AUG-CC-PV(Q+D)Z
    Blend: AUG-CC-PV(Q+D)Z
  Basis Set: (AUG-CC-PV(Q+D)Z AUX)
    Blend: AUG-CC-PVQZ-JKFIT
  @DF-RKS Final Energy:  -920.37182535113698
    Total Energy =                       -920.3718253511369767
  Multiplicity = 1
  Basis Set: AUG-CC-PV(Q+D)Z
    Blend: AUG-CC-PV(Q+D)Z
  Basis Set: (AUG-CC-PV(Q+D)Z AUX)
    Blend: AUG-CC-PVQZ-JKFIT
  @DF-RKS Final Energy:  -920.37182523372780
    Total Energy =                       -920.3718252337278045
    Molecular point group: d2h

    Geometry (in Angstrom), charge = 0, multiplicity = 1:

       Center              X                  Y                   Z               Mass
    ------------   -----------------  -----------------  -----------------  -----------------
         CL           0.000000000000     0.000000000000    -0.993200562670    34.968852682000
         CL           0.000000000000     0.000000000000     0.993200562670    34.968852682000

  Charge       = 0
  Multiplicity = 1
  Basis Set: AUG-CC-PV(Q+D)Z
    Blend: AUG-CC-PV(Q+D)Z
  Basis Set: (AUG-CC-PV(Q+D)Z AUX)
    Blend: AUG-CC-PVQZ-JKFIT

    Orbital Energies [Eh]
    ---------------------

    Doubly Occupied:

       1B1u -101.947349     1Ag  -101.947348     2Ag    -9.702160
       2B1u   -9.702120     3Ag    -7.410342     3B1u   -7.410204
       1B3g   -7.397749     1B2g   -7.397749     1B2u   -7.397746
       1B3u   -7.397746     4Ag    -1.061061     4B1u   -0.888674
       5Ag    -0.566374     2B2u   -0.517567     2B3u   -0.517567
       2B2g   -0.404245     2B3g   -0.404245

  @DF-RKS Final Energy:  -920.37182515273128

   => Energetics <=

    Nuclear Repulsion Energy =             76.9895928535016196
    One-Electron Energy =               -1423.2900599888496345
    Two-Electron Energy =                 469.4349963738588372
    DFT Exchange-Correlation Energy =     -43.6486509637807529
    Empirical Dispersion Energy =           0.0000000000000000
    VV10 Nonlocal Energy =                  0.1422965725386897
    Total Energy =                       -920.3718251527311622

  Dipole Moment: [D]
     X:     0.0000      Y:     0.0000      Z:    -0.0000     Total:     0.0000

  Vibration                       6
  Freq [cm^-1]                 577.7640
  Irrep                           Ag
  Reduced mass [u]             34.9689
  Force const [mDyne/A]         6.8775

  ==> Thermochemistry Components <==

  Entropy, S
    Electronic S            0.000 [cal/(mol K)]        0.000 [J/(mol K)]       0.00000000 [mEh/K] (multiplicity = 1)
    Translational S        38.652 [cal/(mol K)]      161.721 [J/(mol K)]       0.06159614 [mEh/K] (mol. weight = 69.9377 [u], P = 101325.00 [Pa])
    Rotational S           14.011 [cal/(mol K)]       58.621 [J/(mol K)]       0.02232744 [mEh/K] (symmetry no. = 2)
    Vibrational S           0.490 [cal/(mol K)]        2.048 [J/(mol K)]       0.00078010 [mEh/K]
  Total S                  53.152 [cal/(mol K)]      222.389 [J/(mol K)]       0.08470367 [mEh/K]
  Correction S              0.000 [cal/(mol K)]        0.000 [J/(mol K)]       0.00000000 [mEh/K]

  Constant volume heat capacity, Cv
    Electronic Cv           0.000 [cal/(mol K)]        0.000 [J/(mol K)]       0.00000000 [mEh/K]
    Translational Cv        2.981 [cal/(mol K)]       12.472 [J/(mol K)]       0.00475022 [mEh/K]
    Rotational Cv           1.987 [cal/(mol K)]        8.314 [J/(mol K)]       0.00316681 [mEh/K]
    Vibrational Cv          1.079 [cal/(mol K)]        4.516 [J/(mol K)]       0.00172008 [mEh/K]
  Total Cv                  6.047 [cal/(mol K)]       25.302 [J/(mol K)]       0.00963710 [mEh/K]
  Correction Cv             0.000 [cal/(mol K)]        0.000 [J/(mol K)]       0.00000000 [mEh/K]

  Constant pressure heat capacity, Cp
    Electronic Cp           0.000 [cal/(mol K)]        0.000 [J/(mol K)]       0.00000000 [mEh/K]
    Translational Cp        4.968 [cal/(mol K)]       20.786 [J/(mol K)]       0.00791703 [mEh/K]
    Rotational Cp           1.987 [cal/(mol K)]        8.314 [J/(mol K)]       0.00316681 [mEh/K]
    Vibrational Cp          1.079 [cal/(mol K)]        4.516 [J/(mol K)]       0.00172008 [mEh/K]
  Total Cp                  8.035 [cal/(mol K)]       33.617 [J/(mol K)]       0.01280391 [mEh/K]
  Correction Cp             0.000 [cal/(mol K)]        0.000 [J/(mol K)]       0.00000000 [mEh/K]

  ==> Thermochemistry Energy Analysis <==

  Raw electronic energy, E0
  Total E0, Electronic energy at well bottom at 0 [K]                 -920.37182535 [Eh]

  Zero-point energy, ZPE_vib = Sum_i nu_i / 2
    Electronic ZPE          0.000 [kcal/mol]        0.000 [kJ/mol]       0.00000000 [Eh]
    Translational ZPE       0.000 [kcal/mol]        0.000 [kJ/mol]       0.00000000 [Eh]
    Rotational ZPE          0.000 [kcal/mol]        0.000 [kJ/mol]       0.00000000 [Eh]
    Vibrational ZPE         0.826 [kcal/mol]        3.456 [kJ/mol]       0.00131624 [Eh]         288.882 [cm^-1]
  Correction ZPE            0.826 [kcal/mol]        3.456 [kJ/mol]       0.00131624 [Eh]         288.882 [cm^-1]
  Total ZPE, Electronic energy at 0 [K]                               -920.37050911 [Eh]

  Thermal Energy, E (includes ZPE)
    Electronic E            0.000 [kcal/mol]        0.000 [kJ/mol]       0.00000000 [Eh]
    Translational E         0.889 [kcal/mol]        3.718 [kJ/mol]       0.00141628 [Eh]
    Rotational E            0.592 [kcal/mol]        2.479 [kJ/mol]       0.00094418 [Eh]
    Vibrational E           0.934 [kcal/mol]        3.909 [kJ/mol]       0.00148886 [Eh]
  Correction E              2.415 [kcal/mol]       10.106 [kJ/mol]       0.00384932 [Eh]
  Total E, Electronic energy at  298.15 [K]                           -920.36797603 [Eh]

  Enthalpy, H_trans = E_trans + k_B * T
    Electronic H            0.000 [kcal/mol]        0.000 [kJ/mol]       0.00000000 [Eh]
    Translational H         1.481 [kcal/mol]        6.197 [kJ/mol]       0.00236046 [Eh]
    Rotational H            0.592 [kcal/mol]        2.479 [kJ/mol]       0.00094418 [Eh]
    Vibrational H           0.934 [kcal/mol]        3.909 [kJ/mol]       0.00148886 [Eh]
  Correction H              3.008 [kcal/mol]       12.585 [kJ/mol]       0.00479351 [Eh]
  Total H, Enthalpy at  298.15 [K]                                    -920.36703184 [Eh]

  Gibbs free energy, G = H - T * S
    Electronic G            0.000 [kcal/mol]        0.000 [kJ/mol]       0.00000000 [Eh]
    Translational G       -10.043 [kcal/mol]      -42.020 [kJ/mol]      -0.01600443 [Eh]
    Rotational G           -3.585 [kcal/mol]      -14.999 [kJ/mol]      -0.00571274 [Eh]
    Vibrational G           0.788 [kcal/mol]        3.298 [kJ/mol]       0.00125628 [Eh]
  Correction G            -12.839 [kcal/mol]      -53.720 [kJ/mol]      -0.02046089 [Eh]
  Total G, Free enthalpy at  298.15 [K]                               -920.39228624 [Eh]

*** Psi4 exiting successfully. Buy a developer a beer!
