                               Psi4 1.3.2 release

  ==> Input File <==

--------------------------------------------------------------------------
memory 144 GB

molecule {
0 1
Cl 0.0000000000 0.0000000000 0.0000000000
C 0.0000000000 0.0000000000 1.6357056100
N 0.0000000000 0.0000000000 2.7976884200
}

set dynamic_level 1
set basis aug-cc-pV(Q+d)Z

optimize("wB97M-V")
frequencies("wB97M-V")
--------------------------------------------------------------------------

    Molecular point group: c2v
  Charge       = 0
  Multiplicity = 1
  Basis Set: AUG-CC-PV(Q+D)Z
    Blend: AUG-CC-PV(Q+D)Z
  Basis Set: (AUG-CC-PV(Q+D)Z AUX)
    Blend: AUG-CC-PVQZ-JKFIT
  @DF-RKS Final Energy:  -553.03569624342629
    Total Energy =                       -553.0356962434264005
    Molecular point group: c2v
  Basis Set: AUG-CC-PV(Q+D)Z
    Blend: AUG-CC-PV(Q+D)Z
  Basis Set: (AUG-CC-PV(Q+D)Z AUX)
    Blend: AUG-CC-PVQZ-JKFIT
  @DF-RKS Final Energy:  -553.03569283653314
    Total Energy =                       -553.0356928365330305
  Basis Set: AUG-CC-PV(Q+D)Z
    Blend: AUG-CC-PV(Q+D)Z
  Basis Set: (AUG-CC-PV(Q+D)Z AUX)
    Blend: AUG-CC-PVQZ-JKFIT
  @DF-RKS Final Energy:  -553.03569908364443
    Total Energy =                       -553.0356990836444311
  Basis Set: AUG-CC-PV(Q+D)Z
    Blend: AUG-CC-PV(Q+D)Z
  Basis Set: (AUG-CC-PV(Q+D)Z AUX)
    Blend: AUG-CC-PVQZ-JKFIT
  @DF-RKS Final Energy:  -553.03563486425764
    Total Energy =                       -553.0356348642576449
  @DF-RKS Final Energy:  -553.03575281341170
    Total Energy =                       -553.0357528134115910
  @DF-RKS Final Energy:  -553.03610954291378
    Total Energy =                       -553.0361095429138913
  @DF-RKS Final Energy:  -553.03610910037571
    Total Energy =                       -553.0361091003758247
  @DF-RKS Final Energy:  -553.03610940596582
    Total Energy =                       -553.0361094059657034
  @DF-RKS Final Energy:  -553.03610473707113
    Total Energy =                       -553.0361047370712413
  @DF-RKS Final Energy:  -553.03610913783177
    Total Energy =                       -553.0361091378317724
  @DF-RKS Final Energy:  -553.03611011259625
    Total Energy =                       -553.0361101125963614
  @DF-RKS Final Energy:  -553.03610980609221
    Total Energy =                       -553.0361098060923268
  @DF-RKS Final Energy:  -553.03610982087912
    Total Energy =                       -553.0361098208791191
  @DF-RKS Final Energy:  -553.03610760702099
    Total Energy =                       -553.0361076070211084
  @DF-RKS Final Energy:  -553.03610738789462
    Total Energy =                       -553.0361073878945035
  **** Optimization is complete! (in 3 steps) ****
    Final optimized geometry and variables:
  @DF-RKS Final Energy:  -553.03611011259795
    Total Energy =                       -553.0361101125981804
  @DF-RKS Final Energy:  -553.03610980609244
    Total Energy =                       -553.0361098060924405
  @DF-RKS Final Energy:  -553.03610981919769
    Total Energy =                       -553.0361098191976907
  @DF-RKS Final Energy:  -553.03610760161189
    Total Energy =                       -553.0361076016117750
  @DF-RKS Final Energy:  -553.03610738789519
    Total Energy =                       -553.0361073878952993
  @DF-RKS Final Energy:  -553.03611011259750
    Total Energy =                       -553.0361101125974983
  @DF-RKS Final Energy:  -553.03610980609312
    Total Energy =                       -553.0361098060930090
  @DF-RKS Final Energy:  -553.03610981919837
    Total Energy =                       -553.0361098191982592
  @DF-RKS Final Energy:  -553.03610760161109
    Total Energy =                       -553.0361076016109791
  @DF-RKS Final Energy:  -553.03610738789519
    Total Energy =                       -553.0361073878951856
  Basis Set: AUG-CC-PV(Q+D)Z
    Blend: AUG-CC-PV(Q+D)Z
  Basis Set: (AUG-CC-PV(Q+D)Z AUX)
    Blend: AUG-CC-PVQZ-JKFIT
  @DF-RKS Final Energy:  -553.03610753555233
    Total Energy =                       -553.0361075355522189
  Basis Set: AUG-CC-PV(Q+D)Z
    Blend: AUG-CC-PV(Q+D)Z
  Basis Set: (AUG-CC-PV(Q+D)Z AUX)
    Blend: AUG-CC-PVQZ-JKFIT
  @DF-RKS Final Energy:  -553.03610773582750
    Total Energy =                       -553.0361077358274997
  Multiplicity = 1
  Basis Set: AUG-CC-PV(Q+D)Z
    Blend: AUG-CC-PV(Q+D)Z
  Basis Set: (AUG-CC-PV(Q+D)Z AUX)
    Blend: AUG-CC-PVQZ-JKFIT
  @DF-RKS Final Energy:  -553.03611003689173
    Total Energy =                       -553.0361100368917278
    Molecular point group: cs

    Geometry (in Angstrom), charge = 0, multiplicity = 1:

       Center              X                  Y                   Z               Mass
    ------------   -----------------  -----------------  -----------------  -----------------
         CL           0.000000000000    -0.000093017261    -0.960061617469    34.968852682000
         C            0.000000000000     0.000656436159     0.672660624253    12.000000000000
         N            0.000000000000    -0.000330250844     1.821051989572    14.003074004430

  Charge       = 0
  Multiplicity = 1
  Basis Set: AUG-CC-PV(Q+D)Z
    Blend: AUG-CC-PV(Q+D)Z
  Basis Set: (AUG-CC-PV(Q+D)Z AUX)
    Blend: AUG-CC-PVQZ-JKFIT

    Orbital Energies [Eh]
    ---------------------

    Doubly Occupied:

       1Ap  -101.980095     2Ap   -14.531757     3Ap   -10.445404
       4Ap    -9.736910     5Ap    -7.442998     1App   -7.433419
       6Ap    -7.433419     7Ap    -1.093306     8Ap    -1.033315
       9Ap    -0.686717     2App   -0.552911    10Ap    -0.552911
      11Ap    -0.502984     3App   -0.437123    12Ap    -0.437123

  @DF-RKS Final Energy:  -553.03611003661968

   => Energetics <=

    Nuclear Repulsion Energy =             75.0552387935267831
    One-Electron Energy =                -908.4062388974621172
    Two-Electron Energy =                 310.8269528993166091
    DFT Exchange-Correlation Energy =     -30.6364510290574188
    Empirical Dispersion Energy =           0.0000000000000000
    VV10 Nonlocal Energy =                  0.1243881970564905
    Total Energy =                       -553.0361100366195615

  Dipole Moment: [D]
     X:     0.0000      Y:     0.0007      Z:    -2.9653     Total:     2.9653

  Vibration                       6                   7                   8
  Freq [cm^-1]                 400.0495            400.7677            768.2202
  Irrep                           B1                  B2                  A1
  Reduced mass [u]             12.7604             12.7604             17.9673
  Force const [mDyne/A]         1.2032              1.2075              6.2475

  Vibration                       9
  Freq [cm^-1]                2361.7721
  Irrep                           A1
  Reduced mass [u]             12.7415
  Force const [mDyne/A]        41.8743

  ==> Thermochemistry Components <==

  Entropy, S
    Electronic S            0.000 [cal/(mol K)]        0.000 [J/(mol K)]       0.00000000 [mEh/K] (multiplicity = 1)
    Translational S        38.243 [cal/(mol K)]      160.010 [J/(mol K)]       0.06094445 [mEh/K] (mol. weight = 60.9719 [u], P = 101325.00 [Pa])
    Rotational S           15.780 [cal/(mol K)]       66.025 [J/(mol K)]       0.02514761 [mEh/K] (symmetry no. = 1)
    Vibrational S           2.157 [cal/(mol K)]        9.026 [J/(mol K)]       0.00343795 [mEh/K]
  Total S                  56.181 [cal/(mol K)]      235.061 [J/(mol K)]       0.08953000 [mEh/K]
  Correction S              0.000 [cal/(mol K)]        0.000 [J/(mol K)]       0.00000000 [mEh/K]

  Constant volume heat capacity, Cv
    Electronic Cv           0.000 [cal/(mol K)]        0.000 [J/(mol K)]       0.00000000 [mEh/K]
    Translational Cv        2.981 [cal/(mol K)]       12.472 [J/(mol K)]       0.00475022 [mEh/K]
    Rotational Cv           1.987 [cal/(mol K)]        8.314 [J/(mol K)]       0.00316681 [mEh/K]
    Vibrational Cv          3.646 [cal/(mol K)]       15.254 [J/(mol K)]       0.00581013 [mEh/K]
  Total Cv                  8.614 [cal/(mol K)]       36.041 [J/(mol K)]       0.01372715 [mEh/K]
  Correction Cv             0.000 [cal/(mol K)]        0.000 [J/(mol K)]       0.00000000 [mEh/K]

  Constant pressure heat capacity, Cp
    Electronic Cp           0.000 [cal/(mol K)]        0.000 [J/(mol K)]       0.00000000 [mEh/K]
    Translational Cp        4.968 [cal/(mol K)]       20.786 [J/(mol K)]       0.00791703 [mEh/K]
    Rotational Cp           1.987 [cal/(mol K)]        8.314 [J/(mol K)]       0.00316681 [mEh/K]
    Vibrational Cp          3.646 [cal/(mol K)]       15.254 [J/(mol K)]       0.00581013 [mEh/K]
  Total Cp                 10.601 [cal/(mol K)]       44.355 [J/(mol K)]       0.01689396 [mEh/K]
  Correction Cp             0.000 [cal/(mol K)]        0.000 [J/(mol K)]       0.00000000 [mEh/K]

  ==> Thermochemistry Energy Analysis <==

  Raw electronic energy, E0
  Total E0, Electronic energy at well bottom at 0 [K]                 -553.03611011 [Eh]

  Zero-point energy, ZPE_vib = Sum_i nu_i / 2
    Electronic ZPE          0.000 [kcal/mol]        0.000 [kJ/mol]       0.00000000 [Eh]
    Translational ZPE       0.000 [kcal/mol]        0.000 [kJ/mol]       0.00000000 [Eh]
    Rotational ZPE          0.000 [kcal/mol]        0.000 [kJ/mol]       0.00000000 [Eh]
    Vibrational ZPE         5.619 [kcal/mol]       23.511 [kJ/mol]       0.00895504 [Eh]        1965.405 [cm^-1]
  Correction ZPE            5.619 [kcal/mol]       23.511 [kJ/mol]       0.00895504 [Eh]        1965.405 [cm^-1]
  Total ZPE, Electronic energy at 0 [K]                               -553.02715507 [Eh]

  Thermal Energy, E (includes ZPE)
    Electronic E            0.000 [kcal/mol]        0.000 [kJ/mol]       0.00000000 [Eh]
    Translational E         0.889 [kcal/mol]        3.718 [kJ/mol]       0.00141628 [Eh]
    Rotational E            0.592 [kcal/mol]        2.479 [kJ/mol]       0.00094418 [Eh]
    Vibrational E           6.062 [kcal/mol]       25.365 [kJ/mol]       0.00966116 [Eh]
  Correction E              7.544 [kcal/mol]       31.563 [kJ/mol]       0.01202162 [Eh]
  Total E, Electronic energy at  298.15 [K]                           -553.02408849 [Eh]

  Enthalpy, H_trans = E_trans + k_B * T
    Electronic H            0.000 [kcal/mol]        0.000 [kJ/mol]       0.00000000 [Eh]
    Translational H         1.481 [kcal/mol]        6.197 [kJ/mol]       0.00236046 [Eh]
    Rotational H            0.592 [kcal/mol]        2.479 [kJ/mol]       0.00094418 [Eh]
    Vibrational H           6.062 [kcal/mol]       25.365 [kJ/mol]       0.00966116 [Eh]
  Correction H              8.136 [kcal/mol]       34.042 [kJ/mol]       0.01296581 [Eh]
  Total H, Enthalpy at  298.15 [K]                                    -553.02314431 [Eh]

  Gibbs free energy, G = H - T * S
    Electronic G            0.000 [kcal/mol]        0.000 [kJ/mol]       0.00000000 [Eh]
    Translational G        -9.921 [kcal/mol]      -41.509 [kJ/mol]      -0.01581013 [Eh]
    Rotational G           -4.112 [kcal/mol]      -17.206 [kJ/mol]      -0.00655357 [Eh]
    Vibrational G           5.419 [kcal/mol]       22.674 [kJ/mol]       0.00863614 [Eh]
  Correction G             -8.614 [kcal/mol]      -36.042 [kJ/mol]      -0.01372756 [Eh]
  Total G, Free enthalpy at  298.15 [K]                               -553.04983768 [Eh]

*** Psi4 exiting successfully. Buy a developer a beer!
