                               Psi4 1.3.2 release

  ==> Input File <==

--------------------------------------------------------------------------
memory 144 GB

molecule {
0 1
Cl 0.0000000000 0.0000000000 0.0000000000
F 0.0000000000 0.0000000000 1.6318233300
}

set dynamic_level 1
set basis aug-cc-pV(Q+d)Z

optimize("wB97M-V")
frequencies("wB97M-V")
--------------------------------------------------------------------------

    Molecular point group: c2v
  Charge       = 0
  Multiplicity = 1
  Basis Set: AUG-CC-PV(Q+D)Z
    Blend: AUG-CC-PV(Q+D)Z
  Basis Set: (AUG-CC-PV(Q+D)Z AUX)
    Blend: AUG-CC-PVQZ-JKFIT
  @DF-RKS Final Energy:  -559.98783828665069
    Total Energy =                       -559.9878382866507991
    Molecular point group: c2v
  Basis Set: AUG-CC-PV(Q+D)Z
    Blend: AUG-CC-PV(Q+D)Z
  Basis Set: (AUG-CC-PV(Q+D)Z AUX)
    Blend: AUG-CC-PVQZ-JKFIT
  @DF-RKS Final Energy:  -559.98783101509684
    Total Energy =                       -559.9878310150969583
  Basis Set: AUG-CC-PV(Q+D)Z
    Blend: AUG-CC-PV(Q+D)Z
  Basis Set: (AUG-CC-PV(Q+D)Z AUX)
    Blend: AUG-CC-PVQZ-JKFIT
  @DF-RKS Final Energy:  -559.98784493631808
    Total Energy =                       -559.9878449363180835
  Basis Set: AUG-CC-PV(Q+D)Z
    Blend: AUG-CC-PV(Q+D)Z
  Basis Set: (AUG-CC-PV(Q+D)Z AUX)
    Blend: AUG-CC-PVQZ-JKFIT
  @DF-RKS Final Energy:  -559.98787292963937
    Total Energy =                       -559.9878729296393658
  @DF-RKS Final Energy:  -559.98787039086369
    Total Energy =                       -559.9878703908638045
  @DF-RKS Final Energy:  -559.98787483057470
    Total Energy =                       -559.9878748305746967
  @DF-RKS Final Energy:  -559.98787676793881
    Total Energy =                       -559.9878767679389284
  @DF-RKS Final Energy:  -559.98787649243900
    Total Energy =                       -559.9878764924388861
  @DF-RKS Final Energy:  -559.98787639682655
    Total Energy =                       -559.9878763968265503
  **** Optimization is complete! (in 3 steps) ****
    Final optimized geometry and variables:
  @DF-RKS Final Energy:  -559.98787676793836
    Total Energy =                       -559.9878767679382463
  @DF-RKS Final Energy:  -559.98787649243877
    Total Energy =                       -559.9878764924387724
  Basis Set: AUG-CC-PV(Q+D)Z
    Blend: AUG-CC-PV(Q+D)Z
  Basis Set: (AUG-CC-PV(Q+D)Z AUX)
    Blend: AUG-CC-PVQZ-JKFIT
  @DF-RKS Final Energy:  -559.98787639682689
    Total Energy =                       -559.9878763968268913
  Basis Set: AUG-CC-PV(Q+D)Z
    Blend: AUG-CC-PV(Q+D)Z
  Basis Set: (AUG-CC-PV(Q+D)Z AUX)
    Blend: AUG-CC-PVQZ-JKFIT
  @DF-RKS Final Energy:  -559.98787676793961
    Total Energy =                       -559.9878767679397242
  Multiplicity = 1
  Basis Set: AUG-CC-PV(Q+D)Z
    Blend: AUG-CC-PV(Q+D)Z
  Basis Set: (AUG-CC-PV(Q+D)Z AUX)
    Blend: AUG-CC-PVQZ-JKFIT
  @DF-RKS Final Energy:  -559.98787649243923
    Total Energy =                       -559.9878764924391135
    Molecular point group: c2v

    Geometry (in Angstrom), charge = 0, multiplicity = 1:

       Center              X                  Y                   Z               Mass
    ------------   -----------------  -----------------  -----------------  -----------------
         CL           0.000000000000     0.000000000000    -0.571260474799    34.968852682000
         F            0.000000000000     0.000000000000     1.051473811519    18.998403162730

  Charge       = 0
  Multiplicity = 1
  Basis Set: AUG-CC-PV(Q+D)Z
    Blend: AUG-CC-PV(Q+D)Z
  Basis Set: (AUG-CC-PV(Q+D)Z AUX)
    Blend: AUG-CC-PVQZ-JKFIT

    Orbital Energies [Eh]
    ---------------------

    Doubly Occupied:

       1A1  -101.979331     2A1   -24.959179     3A1    -9.730811
       4A1    -7.441700     1B2    -7.425258     1B1    -7.425258
       5A1    -1.382538     6A1    -0.960987     7A1    -0.644145
       2B1    -0.608494     2B2    -0.608494     3B1    -0.435781
       3B2    -0.435781

  @DF-RKS Final Energy:  -559.98787639682769

   => Energetics <=

    Nuclear Repulsion Energy =             49.8936356464155466
    One-Electron Energy =                -873.2155736150366465
    Two-Electron Energy =                 292.7438760839189058
    DFT Exchange-Correlation Energy =     -29.5196544668155489
    Empirical Dispersion Energy =           0.0000000000000000
    VV10 Nonlocal Energy =                  0.1098399546900607
    Total Energy =                       -559.9878763968276871

  Dipole Moment: [D]
     X:     0.0000      Y:     0.0000      Z:    -0.8561     Total:     0.8561

  Vibration                       6
  Freq [cm^-1]                 826.7158
  Irrep                           A1
  Reduced mass [u]             22.6381
  Force const [mDyne/A]         9.1160

  ==> Thermochemistry Components <==

  Entropy, S
    Electronic S            0.000 [cal/(mol K)]        0.000 [J/(mol K)]       0.00000000 [mEh/K] (multiplicity = 1)
    Translational S        37.879 [cal/(mol K)]      158.488 [J/(mol K)]       0.06036475 [mEh/K] (mol. weight = 53.9673 [u], P = 101325.00 [Pa])
    Rotational S           13.888 [cal/(mol K)]       58.106 [J/(mol K)]       0.02213154 [mEh/K] (symmetry no. = 1)
    Vibrational S           0.187 [cal/(mol K)]        0.781 [J/(mol K)]       0.00029742 [mEh/K]
  Total S                  51.954 [cal/(mol K)]      217.375 [J/(mol K)]       0.08279371 [mEh/K]
  Correction S              0.000 [cal/(mol K)]        0.000 [J/(mol K)]       0.00000000 [mEh/K]

  Constant volume heat capacity, Cv
    Electronic Cv           0.000 [cal/(mol K)]        0.000 [J/(mol K)]       0.00000000 [mEh/K]
    Translational Cv        2.981 [cal/(mol K)]       12.472 [J/(mol K)]       0.00475022 [mEh/K]
    Rotational Cv           1.987 [cal/(mol K)]        8.314 [J/(mol K)]       0.00316681 [mEh/K]
    Vibrational Cv          0.608 [cal/(mol K)]        2.543 [J/(mol K)]       0.00096845 [mEh/K]
  Total Cv                  5.576 [cal/(mol K)]       23.329 [J/(mol K)]       0.00888547 [mEh/K]
  Correction Cv             0.000 [cal/(mol K)]        0.000 [J/(mol K)]       0.00000000 [mEh/K]

  Constant pressure heat capacity, Cp
    Electronic Cp           0.000 [cal/(mol K)]        0.000 [J/(mol K)]       0.00000000 [mEh/K]
    Translational Cp        4.968 [cal/(mol K)]       20.786 [J/(mol K)]       0.00791703 [mEh/K]
    Rotational Cp           1.987 [cal/(mol K)]        8.314 [J/(mol K)]       0.00316681 [mEh/K]
    Vibrational Cp          0.608 [cal/(mol K)]        2.543 [J/(mol K)]       0.00096845 [mEh/K]
  Total Cp                  7.563 [cal/(mol K)]       31.643 [J/(mol K)]       0.01205228 [mEh/K]
  Correction Cp             0.000 [cal/(mol K)]        0.000 [J/(mol K)]       0.00000000 [mEh/K]

  ==> Thermochemistry Energy Analysis <==

  Raw electronic energy, E0
  Total E0, Electronic energy at well bottom at 0 [K]                 -559.98787677 [Eh]

  Zero-point energy, ZPE_vib = Sum_i nu_i / 2
    Electronic ZPE          0.000 [kcal/mol]        0.000 [kJ/mol]       0.00000000 [Eh]
    Translational ZPE       0.000 [kcal/mol]        0.000 [kJ/mol]       0.00000000 [Eh]
    Rotational ZPE          0.000 [kcal/mol]        0.000 [kJ/mol]       0.00000000 [Eh]
    Vibrational ZPE         1.182 [kcal/mol]        4.945 [kJ/mol]       0.00188340 [Eh]         413.358 [cm^-1]
  Correction ZPE            1.182 [kcal/mol]        4.945 [kJ/mol]       0.00188340 [Eh]         413.358 [cm^-1]
  Total ZPE, Electronic energy at 0 [K]                               -559.98599337 [Eh]

  Thermal Energy, E (includes ZPE)
    Electronic E            0.000 [kcal/mol]        0.000 [kJ/mol]       0.00000000 [Eh]
    Translational E         0.889 [kcal/mol]        3.718 [kJ/mol]       0.00141628 [Eh]
    Rotational E            0.592 [kcal/mol]        2.479 [kJ/mol]       0.00094418 [Eh]
    Vibrational E           1.226 [kcal/mol]        5.131 [kJ/mol]       0.00195443 [Eh]
  Correction E              2.708 [kcal/mol]       11.329 [kJ/mol]       0.00431490 [Eh]
  Total E, Electronic energy at  298.15 [K]                           -559.98356187 [Eh]

  Enthalpy, H_trans = E_trans + k_B * T
    Electronic H            0.000 [kcal/mol]        0.000 [kJ/mol]       0.00000000 [Eh]
    Translational H         1.481 [kcal/mol]        6.197 [kJ/mol]       0.00236046 [Eh]
    Rotational H            0.592 [kcal/mol]        2.479 [kJ/mol]       0.00094418 [Eh]
    Vibrational H           1.226 [kcal/mol]        5.131 [kJ/mol]       0.00195443 [Eh]
  Correction H              3.300 [kcal/mol]       13.808 [kJ/mol]       0.00525908 [Eh]
  Total H, Enthalpy at  298.15 [K]                                    -559.98261769 [Eh]

  Gibbs free energy, G = H - T * S
    Electronic G            0.000 [kcal/mol]        0.000 [kJ/mol]       0.00000000 [Eh]
    Translational G        -9.813 [kcal/mol]      -41.056 [kJ/mol]      -0.01563729 [Eh]
    Rotational G           -3.548 [kcal/mol]      -14.845 [kJ/mol]      -0.00565433 [Eh]
    Vibrational G           1.171 [kcal/mol]        4.899 [kJ/mol]       0.00186576 [Eh]
  Correction G            -12.190 [kcal/mol]      -51.003 [kJ/mol]      -0.01942586 [Eh]
  Total G, Free enthalpy at  298.15 [K]                               -560.00730263 [Eh]

*** Psi4 exiting successfully. Buy a developer a beer!
