                               Psi4 1.3.2 release

  ==> Input File <==

--------------------------------------------------------------------------
memory 144 GB

molecule {
0 1
C 0.0000000000 0.0000000000 0.0000000000
O 0.0000000000 0.0000000000 1.1626000000
O 0.0000000000 0.0000000000 -1.1626000000
}

set dynamic_level 1
set basis aug-cc-pV(Q+d)Z

optimize("wB97M-V")
frequencies("wB97M-V")
--------------------------------------------------------------------------

    Molecular point group: d2h
  Charge       = 0
  Multiplicity = 1
  Basis Set: AUG-CC-PV(Q+D)Z
    Blend: AUG-CC-PV(Q+D)Z
  Basis Set: (AUG-CC-PV(Q+D)Z AUX)
    Blend: AUG-CC-PVQZ-JKFIT
  @DF-RKS Final Energy:  -188.62992237120307
    Total Energy =                       -188.6299223712030937
    Molecular point group: d2h
  Basis Set: AUG-CC-PV(Q+D)Z
    Blend: AUG-CC-PV(Q+D)Z
  Basis Set: (AUG-CC-PV(Q+D)Z AUX)
    Blend: AUG-CC-PVQZ-JKFIT
  @DF-RKS Final Energy:  -188.62994101673158
    Total Energy =                       -188.6299410167315784
  Basis Set: AUG-CC-PV(Q+D)Z
    Blend: AUG-CC-PV(Q+D)Z
  Basis Set: (AUG-CC-PV(Q+D)Z AUX)
    Blend: AUG-CC-PVQZ-JKFIT
  @DF-RKS Final Energy:  -188.62990196121001
    Total Energy =                       -188.6299019612100381
  Basis Set: AUG-CC-PV(Q+D)Z
    Blend: AUG-CC-PV(Q+D)Z
  Basis Set: (AUG-CC-PV(Q+D)Z AUX)
    Blend: AUG-CC-PVQZ-JKFIT
  @DF-RKS Final Energy:  -188.63002830401226
    Total Energy =                       -188.6300283040122849
  @DF-RKS Final Energy:  -188.63002915336531
    Total Energy =                       -188.6300291533652569
  @DF-RKS Final Energy:  -188.63002562360987
    Total Energy =                       -188.6300256236098960
  @DF-RKS Final Energy:  -188.63002916156427
    Total Energy =                       -188.6300291615642948
  @DF-RKS Final Energy:  -188.63002821117112
    Total Energy =                       -188.6300282111711226
  @DF-RKS Final Energy:  -188.63002827348814
    Total Energy =                       -188.6300282734881364
  **** Optimization is complete! (in 3 steps) ****
    Final optimized geometry and variables:
  @DF-RKS Final Energy:  -188.63002916156447
    Total Energy =                       -188.6300291615644653
  @DF-RKS Final Energy:  -188.63002821117132
    Total Energy =                       -188.6300282111713216
  @DF-RKS Final Energy:  -188.63002827348828
    Total Energy =                       -188.6300282734882785
  @DF-RKS Final Energy:  -188.63002916156455
    Total Energy =                       -188.6300291615645790
  @DF-RKS Final Energy:  -188.63002821117141
    Total Energy =                       -188.6300282111713784
  Basis Set: AUG-CC-PV(Q+D)Z
    Blend: AUG-CC-PV(Q+D)Z
  Basis Set: (AUG-CC-PV(Q+D)Z AUX)
    Blend: AUG-CC-PVQZ-JKFIT
  @DF-RKS Final Energy:  -188.63002827348816
    Total Energy =                       -188.6300282734881648
  Basis Set: AUG-CC-PV(Q+D)Z
    Blend: AUG-CC-PV(Q+D)Z
  Basis Set: (AUG-CC-PV(Q+D)Z AUX)
    Blend: AUG-CC-PVQZ-JKFIT
  @DF-RKS Final Energy:  -188.63002639209014
    Total Energy =                       -188.6300263920901443
  Multiplicity = 1
  Basis Set: AUG-CC-PV(Q+D)Z
    Blend: AUG-CC-PV(Q+D)Z
  Basis Set: (AUG-CC-PV(Q+D)Z AUX)
    Blend: AUG-CC-PVQZ-JKFIT
  @DF-RKS Final Energy:  -188.63002892548766
    Total Energy =                       -188.6300289254876645
    Molecular point group: c2v

    Geometry (in Angstrom), charge = 0, multiplicity = 1:

       Center              X                  Y                   Z               Mass
    ------------   -----------------  -----------------  -----------------  -----------------
         C           -0.000651343880     0.000000000000     0.000000000000    12.000000000000
         O            0.000244331612     0.000000000000     1.157505612642    15.994914619570
         O            0.000244331612     0.000000000000    -1.157505612642    15.994914619570

  Charge       = 0
  Multiplicity = 1
  Basis Set: AUG-CC-PV(Q+D)Z
    Blend: AUG-CC-PV(Q+D)Z
  Basis Set: (AUG-CC-PV(Q+D)Z AUX)
    Blend: AUG-CC-PVQZ-JKFIT

    Orbital Energies [Eh]
    ---------------------

    Doubly Occupied:

       1B2   -19.414672     1A1   -19.414638     2A1   -10.537210
       3A1    -1.298952     2B2    -1.256054     4A1    -0.685017
       1B1    -0.638125     5A1    -0.638125     3B2    -0.637837
       1A2    -0.480473     4B2    -0.480473

  @DF-RKS Final Energy:  -188.63002892342487

   => Energetics <=

    Nuclear Repulsion Energy =             58.5177877472769552
    One-Electron Energy =                -373.0418843970711578
    Two-Electron Energy =                 142.2068618837781457
    DFT Exchange-Correlation Energy =     -16.4045448848094892
    Empirical Dispersion Energy =           0.0000000000000000
    VV10 Nonlocal Energy =                  0.0917507274007033
    Total Energy =                       -188.6300289234248737

  Dipole Moment: [D]
     X:    -0.0023      Y:     0.0000      Z:     0.0000     Total:     0.0023

  Vibration                       6                   7                   8
  Freq [cm^-1]                 706.4412            709.5208           1393.9991
  Irrep                          B2u                 B3u                  Ag
  Reduced mass [u]             12.8774             12.8774             15.9949
  Force const [mDyne/A]         3.7864              3.8195             18.3129

  Vibration                       9
  Freq [cm^-1]                2419.6244
  Irrep                          B1u
  Reduced mass [u]             12.8774
  Force const [mDyne/A]        44.4195

  ==> Thermochemistry Components <==

  Entropy, S
    Electronic S            0.000 [cal/(mol K)]        0.000 [J/(mol K)]       0.00000000 [mEh/K] (multiplicity = 1)
    Translational S        37.270 [cal/(mol K)]      155.938 [J/(mol K)]       0.05939371 [mEh/K] (mol. weight = 43.9898 [u], P = 101325.00 [Pa])
    Rotational S           13.063 [cal/(mol K)]       54.658 [J/(mol K)]       0.02081800 [mEh/K] (symmetry no. = 2)
    Vibrational S           0.612 [cal/(mol K)]        2.561 [J/(mol K)]       0.00097557 [mEh/K]
  Total S                  50.946 [cal/(mol K)]      213.157 [J/(mol K)]       0.08118728 [mEh/K]
  Correction S              0.000 [cal/(mol K)]        0.000 [J/(mol K)]       0.00000000 [mEh/K]

  Constant volume heat capacity, Cv
    Electronic Cv           0.000 [cal/(mol K)]        0.000 [J/(mol K)]       0.00000000 [mEh/K]
    Translational Cv        2.981 [cal/(mol K)]       12.472 [J/(mol K)]       0.00475022 [mEh/K]
    Rotational Cv           1.987 [cal/(mol K)]        8.314 [J/(mol K)]       0.00316681 [mEh/K]
    Vibrational Cv          1.738 [cal/(mol K)]        7.273 [J/(mol K)]       0.00277021 [mEh/K]
  Total Cv                  6.706 [cal/(mol K)]       28.059 [J/(mol K)]       0.01068724 [mEh/K]
  Correction Cv             0.000 [cal/(mol K)]        0.000 [J/(mol K)]       0.00000000 [mEh/K]

  Constant pressure heat capacity, Cp
    Electronic Cp           0.000 [cal/(mol K)]        0.000 [J/(mol K)]       0.00000000 [mEh/K]
    Translational Cp        4.968 [cal/(mol K)]       20.786 [J/(mol K)]       0.00791703 [mEh/K]
    Rotational Cp           1.987 [cal/(mol K)]        8.314 [J/(mol K)]       0.00316681 [mEh/K]
    Vibrational Cp          1.738 [cal/(mol K)]        7.273 [J/(mol K)]       0.00277021 [mEh/K]
  Total Cp                  8.694 [cal/(mol K)]       36.374 [J/(mol K)]       0.01385405 [mEh/K]
  Correction Cp             0.000 [cal/(mol K)]        0.000 [J/(mol K)]       0.00000000 [mEh/K]

  ==> Thermochemistry Energy Analysis <==

  Raw electronic energy, E0
  Total E0, Electronic energy at well bottom at 0 [K]                 -188.63002916 [Eh]

  Zero-point energy, ZPE_vib = Sum_i nu_i / 2
    Electronic ZPE          0.000 [kcal/mol]        0.000 [kJ/mol]       0.00000000 [Eh]
    Translational ZPE       0.000 [kcal/mol]        0.000 [kJ/mol]       0.00000000 [Eh]
    Rotational ZPE          0.000 [kcal/mol]        0.000 [kJ/mol]       0.00000000 [Eh]
    Vibrational ZPE         7.476 [kcal/mol]       31.280 [kJ/mol]       0.01191387 [Eh]        2614.793 [cm^-1]
  Correction ZPE            7.476 [kcal/mol]       31.280 [kJ/mol]       0.01191387 [Eh]        2614.793 [cm^-1]
  Total ZPE, Electronic energy at 0 [K]                               -188.61811529 [Eh]

  Thermal Energy, E (includes ZPE)
    Electronic E            0.000 [kcal/mol]        0.000 [kJ/mol]       0.00000000 [Eh]
    Translational E         0.889 [kcal/mol]        3.718 [kJ/mol]       0.00141628 [Eh]
    Rotational E            0.592 [kcal/mol]        2.479 [kJ/mol]       0.00094418 [Eh]
    Vibrational E           7.618 [kcal/mol]       31.875 [kJ/mol]       0.01214057 [Eh]
  Correction E              9.100 [kcal/mol]       38.072 [kJ/mol]       0.01450103 [Eh]
  Total E, Electronic energy at  298.15 [K]                           -188.61552813 [Eh]

  Enthalpy, H_trans = E_trans + k_B * T
    Electronic H            0.000 [kcal/mol]        0.000 [kJ/mol]       0.00000000 [Eh]
    Translational H         1.481 [kcal/mol]        6.197 [kJ/mol]       0.00236046 [Eh]
    Rotational H            0.592 [kcal/mol]        2.479 [kJ/mol]       0.00094418 [Eh]
    Vibrational H           7.618 [kcal/mol]       31.875 [kJ/mol]       0.01214057 [Eh]
  Correction H              9.692 [kcal/mol]       40.551 [kJ/mol]       0.01544521 [Eh]
  Total H, Enthalpy at  298.15 [K]                                    -188.61458395 [Eh]

  Gibbs free energy, G = H - T * S
    Electronic G            0.000 [kcal/mol]        0.000 [kJ/mol]       0.00000000 [Eh]
    Translational G        -9.631 [kcal/mol]      -40.296 [kJ/mol]      -0.01534777 [Eh]
    Rotational G           -3.302 [kcal/mol]      -13.817 [kJ/mol]      -0.00526270 [Eh]
    Vibrational G           7.436 [kcal/mol]       31.111 [kJ/mol]       0.01184970 [Eh]
  Correction G             -5.497 [kcal/mol]      -23.001 [kJ/mol]      -0.00876078 [Eh]
  Total G, Free enthalpy at  298.15 [K]                               -188.63878994 [Eh]

*** Psi4 exiting successfully. Buy a developer a beer!
