                               Psi4 1.3.2 release

  ==> Input File <==

--------------------------------------------------------------------------
memory 144 GB

molecule {
0 1
C 0.0000000000 0.0000000000 0.0000000000
O 0.0000000000 0.0000000000 1.1314000000
}

set dynamic_level 1
set basis aug-cc-pV(Q+d)Z

optimize("wB97M-V")
frequencies("wB97M-V")
--------------------------------------------------------------------------

    Molecular point group: c2v
  Charge       = 0
  Multiplicity = 1
  Basis Set: AUG-CC-PV(Q+D)Z
    Blend: AUG-CC-PV(Q+D)Z
  Basis Set: (AUG-CC-PV(Q+D)Z AUX)
    Blend: AUG-CC-PVQZ-JKFIT
  @DF-RKS Final Energy:  -113.34275250619216
    Total Energy =                       -113.3427525061921557
    Molecular point group: c2v
  Basis Set: AUG-CC-PV(Q+D)Z
    Blend: AUG-CC-PV(Q+D)Z
  Basis Set: (AUG-CC-PV(Q+D)Z AUX)
    Blend: AUG-CC-PVQZ-JKFIT
  @DF-RKS Final Energy:  -113.34271319435770
    Total Energy =                       -113.3427131943576853
  Basis Set: AUG-CC-PV(Q+D)Z
    Blend: AUG-CC-PV(Q+D)Z
  Basis Set: (AUG-CC-PV(Q+D)Z AUX)
    Blend: AUG-CC-PVQZ-JKFIT
  @DF-RKS Final Energy:  -113.34278733633003
    Total Energy =                       -113.3427873363300336
  Basis Set: AUG-CC-PV(Q+D)Z
    Blend: AUG-CC-PV(Q+D)Z
  Basis Set: (AUG-CC-PV(Q+D)Z AUX)
    Blend: AUG-CC-PVQZ-JKFIT
  @DF-RKS Final Energy:  -113.34289960487958
    Total Energy =                       -113.3428996048795767
  @DF-RKS Final Energy:  -113.34289160819129
    Total Energy =                       -113.3428916081912945
  @DF-RKS Final Energy:  -113.34290289887974
    Total Energy =                       -113.3429028988797427
  @DF-RKS Final Energy:  -113.34290298847752
    Total Energy =                       -113.3429029884775190
  @DF-RKS Final Energy:  -113.34290077776423
    Total Energy =                       -113.3429007777642283
  @DF-RKS Final Energy:  -113.34290045763120
    Total Energy =                       -113.3429004576312025
  **** Optimization is complete! (in 3 steps) ****
    Final optimized geometry and variables:
  @DF-RKS Final Energy:  -113.34290298847749
    Total Energy =                       -113.3429029884774906
  @DF-RKS Final Energy:  -113.34290077778971
    Total Energy =                       -113.3429007777896942
  Basis Set: AUG-CC-PV(Q+D)Z
    Blend: AUG-CC-PV(Q+D)Z
  Basis Set: (AUG-CC-PV(Q+D)Z AUX)
    Blend: AUG-CC-PVQZ-JKFIT
  @DF-RKS Final Energy:  -113.34290045763115
    Total Energy =                       -113.3429004576311456
  Basis Set: AUG-CC-PV(Q+D)Z
    Blend: AUG-CC-PV(Q+D)Z
  Basis Set: (AUG-CC-PV(Q+D)Z AUX)
    Blend: AUG-CC-PVQZ-JKFIT
  @DF-RKS Final Energy:  -113.34290298847783
    Total Energy =                       -113.3429029884778316
  Multiplicity = 1
  Basis Set: AUG-CC-PV(Q+D)Z
    Blend: AUG-CC-PV(Q+D)Z
  Basis Set: (AUG-CC-PV(Q+D)Z AUX)
    Blend: AUG-CC-PVQZ-JKFIT
  @DF-RKS Final Energy:  -113.34290077779004
    Total Energy =                       -113.3429007777900352
    Molecular point group: c2v

    Geometry (in Angstrom), charge = 0, multiplicity = 1:

       Center              X                  Y                   Z               Mass
    ------------   -----------------  -----------------  -----------------  -----------------
         C            0.000000000000     0.000000000000    -0.641186929204    12.000000000000
         O            0.000000000000     0.000000000000     0.481043089848    15.994914619570

  Charge       = 0
  Multiplicity = 1
  Basis Set: AUG-CC-PV(Q+D)Z
    Blend: AUG-CC-PV(Q+D)Z
  Basis Set: (AUG-CC-PV(Q+D)Z AUX)
    Blend: AUG-CC-PVQZ-JKFIT

    Orbital Energies [Eh]
    ---------------------

    Doubly Occupied:

       1A1   -19.438344     2A1   -10.459509     3A1    -1.298918
       4A1    -0.694561     1B2    -0.588540     1B1    -0.588540
       5A1    -0.487478

  @DF-RKS Final Energy:  -113.34290045763134

   => Energetics <=

    Nuclear Repulsion Energy =             22.6339571040971173
    One-Electron Energy =                -198.5301761888384817
    Two-Electron Energy =                  72.5514466863302943
    DFT Exchange-Correlation Energy =     -10.0572497475088038
    Empirical Dispersion Energy =           0.0000000000000000
    VV10 Nonlocal Energy =                  0.0591216882885510
    Total Energy =                       -113.3429004576313304

  Dipole Moment: [D]
     X:     0.0000      Y:     0.0000      Z:     0.0819     Total:     0.0819

  Vibration                       6
  Freq [cm^-1]                2238.6888
  Irrep                           A1
  Reduced mass [u]             13.4388
  Force const [mDyne/A]        39.6823

  ==> Thermochemistry Components <==

  Entropy, S
    Electronic S            0.000 [cal/(mol K)]        0.000 [J/(mol K)]       0.00000000 [mEh/K] (multiplicity = 1)
    Translational S        35.923 [cal/(mol K)]      150.302 [J/(mol K)]       0.05724692 [mEh/K] (mol. weight = 27.9949 [u], P = 101325.00 [Pa])
    Rotational S           11.261 [cal/(mol K)]       47.115 [J/(mol K)]       0.01794502 [mEh/K] (symmetry no. = 1)
    Vibrational S           0.000 [cal/(mol K)]        0.002 [J/(mol K)]       0.00000076 [mEh/K]
  Total S                  47.184 [cal/(mol K)]      197.418 [J/(mol K)]       0.07519270 [mEh/K]
  Correction S              0.000 [cal/(mol K)]        0.000 [J/(mol K)]       0.00000000 [mEh/K]

  Constant volume heat capacity, Cv
    Electronic Cv           0.000 [cal/(mol K)]        0.000 [J/(mol K)]       0.00000000 [mEh/K]
    Translational Cv        2.981 [cal/(mol K)]       12.472 [J/(mol K)]       0.00475022 [mEh/K]
    Rotational Cv           1.987 [cal/(mol K)]        8.314 [J/(mol K)]       0.00316681 [mEh/K]
    Vibrational Cv          0.005 [cal/(mol K)]        0.020 [J/(mol K)]       0.00000752 [mEh/K]
  Total Cv                  4.973 [cal/(mol K)]       20.806 [J/(mol K)]       0.00792454 [mEh/K]
  Correction Cv             0.000 [cal/(mol K)]        0.000 [J/(mol K)]       0.00000000 [mEh/K]

  Constant pressure heat capacity, Cp
    Electronic Cp           0.000 [cal/(mol K)]        0.000 [J/(mol K)]       0.00000000 [mEh/K]
    Translational Cp        4.968 [cal/(mol K)]       20.786 [J/(mol K)]       0.00791703 [mEh/K]
    Rotational Cp           1.987 [cal/(mol K)]        8.314 [J/(mol K)]       0.00316681 [mEh/K]
    Vibrational Cp          0.005 [cal/(mol K)]        0.020 [J/(mol K)]       0.00000752 [mEh/K]
  Total Cp                  6.960 [cal/(mol K)]       29.120 [J/(mol K)]       0.01109135 [mEh/K]
  Correction Cp             0.000 [cal/(mol K)]        0.000 [J/(mol K)]       0.00000000 [mEh/K]

  ==> Thermochemistry Energy Analysis <==

  Raw electronic energy, E0
  Total E0, Electronic energy at well bottom at 0 [K]                 -113.34290299 [Eh]

  Zero-point energy, ZPE_vib = Sum_i nu_i / 2
    Electronic ZPE          0.000 [kcal/mol]        0.000 [kJ/mol]       0.00000000 [Eh]
    Translational ZPE       0.000 [kcal/mol]        0.000 [kJ/mol]       0.00000000 [Eh]
    Rotational ZPE          0.000 [kcal/mol]        0.000 [kJ/mol]       0.00000000 [Eh]
    Vibrational ZPE         3.200 [kcal/mol]       13.390 [kJ/mol]       0.00510011 [Eh]        1119.344 [cm^-1]
  Correction ZPE            3.200 [kcal/mol]       13.390 [kJ/mol]       0.00510011 [Eh]        1119.344 [cm^-1]
  Total ZPE, Electronic energy at 0 [K]                               -113.33780288 [Eh]

  Thermal Energy, E (includes ZPE)
    Electronic E            0.000 [kcal/mol]        0.000 [kJ/mol]       0.00000000 [Eh]
    Translational E         0.889 [kcal/mol]        3.718 [kJ/mol]       0.00141628 [Eh]
    Rotational E            0.592 [kcal/mol]        2.479 [kJ/mol]       0.00094418 [Eh]
    Vibrational E           3.200 [kcal/mol]       13.391 [kJ/mol]       0.00510032 [Eh]
  Correction E              4.682 [kcal/mol]       19.588 [kJ/mol]       0.00746078 [Eh]
  Total E, Electronic energy at  298.15 [K]                           -113.33544221 [Eh]

  Enthalpy, H_trans = E_trans + k_B * T
    Electronic H            0.000 [kcal/mol]        0.000 [kJ/mol]       0.00000000 [Eh]
    Translational H         1.481 [kcal/mol]        6.197 [kJ/mol]       0.00236046 [Eh]
    Rotational H            0.592 [kcal/mol]        2.479 [kJ/mol]       0.00094418 [Eh]
    Vibrational H           3.200 [kcal/mol]       13.391 [kJ/mol]       0.00510032 [Eh]
  Correction H              5.274 [kcal/mol]       22.067 [kJ/mol]       0.00840496 [Eh]
  Total H, Enthalpy at  298.15 [K]                                    -113.33449803 [Eh]

  Gibbs free energy, G = H - T * S
    Electronic G            0.000 [kcal/mol]        0.000 [kJ/mol]       0.00000000 [Eh]
    Translational G        -9.229 [kcal/mol]      -38.615 [kJ/mol]      -0.01470771 [Eh]
    Rotational G           -2.765 [kcal/mol]      -11.568 [kJ/mol]      -0.00440612 [Eh]
    Vibrational G           3.200 [kcal/mol]       13.390 [kJ/mol]       0.00510009 [Eh]
  Correction G             -8.794 [kcal/mol]      -36.793 [kJ/mol]      -0.01401374 [Eh]
  Total G, Free enthalpy at  298.15 [K]                               -113.35691673 [Eh]

*** Psi4 exiting successfully. Buy a developer a beer!
