                               Psi4 1.3.2 release

  ==> Input File <==

--------------------------------------------------------------------------
memory 144 GB

molecule {
0 1
C 0.0000000000 0.0000000000 0.0000000000
S 0.0000000000 0.0000000000 1.5576337400
S 0.0000000000 0.0000000000 -1.5576337400
}

set dynamic_level 1
set basis aug-cc-pV(Q+d)Z

optimize("wB97M-V")
frequencies("wB97M-V")
--------------------------------------------------------------------------

    Molecular point group: d2h
  Charge       = 0
  Multiplicity = 1
  Basis Set: AUG-CC-PV(Q+D)Z
    Blend: AUG-CC-PV(Q+D)Z
  Basis Set: (AUG-CC-PV(Q+D)Z AUX)
    Blend: AUG-CC-PVQZ-JKFIT
  @DF-RKS Final Energy:  -834.49789215917872
    Total Energy =                       -834.4978921591787184
    Molecular point group: d2h
  Basis Set: AUG-CC-PV(Q+D)Z
    Blend: AUG-CC-PV(Q+D)Z
  Basis Set: (AUG-CC-PV(Q+D)Z AUX)
    Blend: AUG-CC-PVQZ-JKFIT
  @DF-RKS Final Energy:  -834.49790607617683
    Total Energy =                       -834.4979060761768324
  Basis Set: AUG-CC-PV(Q+D)Z
    Blend: AUG-CC-PV(Q+D)Z
  Basis Set: (AUG-CC-PV(Q+D)Z AUX)
    Blend: AUG-CC-PVQZ-JKFIT
  @DF-RKS Final Energy:  -834.49787783961199
    Total Energy =                       -834.4978778396119878
  Basis Set: AUG-CC-PV(Q+D)Z
    Blend: AUG-CC-PV(Q+D)Z
  Basis Set: (AUG-CC-PV(Q+D)Z AUX)
    Blend: AUG-CC-PVQZ-JKFIT
  @DF-RKS Final Energy:  -834.49811831845636
    Total Energy =                       -834.4981183184563633
  @DF-RKS Final Energy:  -834.49811899025497
    Total Energy =                       -834.4981189902550796
  @DF-RKS Final Energy:  -834.49811719289437
    Total Energy =                       -834.4981171928942558
  @DF-RKS Final Energy:  -834.49811922411538
    Total Energy =                       -834.4981192241152712
  @DF-RKS Final Energy:  -834.49811894027312
    Total Energy =                       -834.4981189402731161
  @DF-RKS Final Energy:  -834.49811900078214
    Total Energy =                       -834.4981190007821397
  **** Optimization is complete! (in 3 steps) ****
    Final optimized geometry and variables:
  @DF-RKS Final Energy:  -834.49811922411379
    Total Energy =                       -834.4981192241137933
  @DF-RKS Final Energy:  -834.49811894027152
    Total Energy =                       -834.4981189402714108
  @DF-RKS Final Energy:  -834.49811900078157
    Total Energy =                       -834.4981190007815712
  @DF-RKS Final Energy:  -834.49811922411550
    Total Energy =                       -834.4981192241153849
  @DF-RKS Final Energy:  -834.49811894027266
    Total Energy =                       -834.4981189402726613
  Basis Set: AUG-CC-PV(Q+D)Z
    Blend: AUG-CC-PV(Q+D)Z
  Basis Set: (AUG-CC-PV(Q+D)Z AUX)
    Blend: AUG-CC-PVQZ-JKFIT
  @DF-RKS Final Energy:  -834.49811900078214
    Total Energy =                       -834.4981190007821397
  Basis Set: AUG-CC-PV(Q+D)Z
    Blend: AUG-CC-PV(Q+D)Z
  Basis Set: (AUG-CC-PV(Q+D)Z AUX)
    Blend: AUG-CC-PVQZ-JKFIT
  @DF-RKS Final Energy:  -834.49811803182683
    Total Energy =                       -834.4981180318267207
  Multiplicity = 1
  Basis Set: AUG-CC-PV(Q+D)Z
    Blend: AUG-CC-PV(Q+D)Z
  Basis Set: (AUG-CC-PV(Q+D)Z AUX)
    Blend: AUG-CC-PVQZ-JKFIT
  @DF-RKS Final Energy:  -834.49811910209587
    Total Energy =                       -834.4981191020958704
    Molecular point group: c2v

    Geometry (in Angstrom), charge = 0, multiplicity = 1:

       Center              X                  Y                   Z               Mass
    ------------   -----------------  -----------------  -----------------  -----------------
         C           -0.000700864006     0.000000000000     0.000000000000    12.000000000000
         S            0.000131526794     0.000000000000     1.547071990042    31.972071174400
         S            0.000131526794     0.000000000000    -1.547071990042    31.972071174400

  Charge       = 0
  Multiplicity = 1
  Basis Set: AUG-CC-PV(Q+D)Z
    Blend: AUG-CC-PV(Q+D)Z
  Basis Set: (AUG-CC-PV(Q+D)Z AUX)
    Blend: AUG-CC-PVQZ-JKFIT

    Orbital Energies [Eh]
    ---------------------

    Doubly Occupied:

       1A1   -89.235433     1B2   -89.235433     2A1   -10.476218
       2B2    -8.151328     3A1    -8.151308     3B2    -6.060345
       4A1    -6.060344     1A2    -6.056823     4B2    -6.056823
       1B1    -6.056821     5A1    -6.056821     6A1    -0.986400
       5B2    -0.891170     7A1    -0.615684     6B2    -0.531876
       8A1    -0.498129     2B1    -0.498129     2A2    -0.358874
       7B2    -0.358874

  @DF-RKS Final Energy:  -834.49811911486881

   => Energetics <=

    Nuclear Repulsion Energy =            109.4562462496735691
    One-Electron Energy =               -1368.0417289421234273
    Two-Electron Energy =                 467.3715639711610947
    DFT Exchange-Correlation Energy =     -43.4411998992588835
    Empirical Dispersion Energy =           0.0000000000000000
    VV10 Nonlocal Energy =                  0.1569995056788535
    Total Energy =                       -834.4981191148688140

  Dipole Moment: [D]
     X:     0.0007      Y:     0.0000      Z:     0.0000     Total:     0.0007

  Vibration                       6                   7                   8
  Freq [cm^-1]                 480.5664            507.8835            732.1729
  Irrep                          B3u                 B2u                  Ag
  Reduced mass [u]             13.3142             13.3142             31.9721
  Force const [mDyne/A]         1.8116              2.0235             10.0983

  Vibration                       9
  Freq [cm^-1]                1587.5959
  Irrep                          B1u
  Reduced mass [u]             13.3142
  Force const [mDyne/A]        19.7717

  ==> Thermochemistry Components <==

  Entropy, S
    Electronic S            0.000 [cal/(mol K)]        0.000 [J/(mol K)]       0.00000000 [mEh/K] (multiplicity = 1)
    Translational S        38.898 [cal/(mol K)]      162.748 [J/(mol K)]       0.06198752 [mEh/K] (mol. weight = 75.9441 [u], P = 101325.00 [Pa])
    Rotational S           15.593 [cal/(mol K)]       65.240 [J/(mol K)]       0.02484867 [mEh/K] (symmetry no. = 2)
    Vibrational S           1.626 [cal/(mol K)]        6.801 [J/(mol K)]       0.00259043 [mEh/K]
  Total S                  56.116 [cal/(mol K)]      234.790 [J/(mol K)]       0.08942662 [mEh/K]
  Correction S              0.000 [cal/(mol K)]        0.000 [J/(mol K)]       0.00000000 [mEh/K]

  Constant volume heat capacity, Cv
    Electronic Cv           0.000 [cal/(mol K)]        0.000 [J/(mol K)]       0.00000000 [mEh/K]
    Translational Cv        2.981 [cal/(mol K)]       12.472 [J/(mol K)]       0.00475022 [mEh/K]
    Rotational Cv           1.987 [cal/(mol K)]        8.314 [J/(mol K)]       0.00316681 [mEh/K]
    Vibrational Cv          3.350 [cal/(mol K)]       14.014 [J/(mol K)]       0.00533784 [mEh/K]
  Total Cv                  8.318 [cal/(mol K)]       34.801 [J/(mol K)]       0.01325486 [mEh/K]
  Correction Cv             0.000 [cal/(mol K)]        0.000 [J/(mol K)]       0.00000000 [mEh/K]

  Constant pressure heat capacity, Cp
    Electronic Cp           0.000 [cal/(mol K)]        0.000 [J/(mol K)]       0.00000000 [mEh/K]
    Translational Cp        4.968 [cal/(mol K)]       20.786 [J/(mol K)]       0.00791703 [mEh/K]
    Rotational Cp           1.987 [cal/(mol K)]        8.314 [J/(mol K)]       0.00316681 [mEh/K]
    Vibrational Cp          3.350 [cal/(mol K)]       14.014 [J/(mol K)]       0.00533784 [mEh/K]
  Total Cp                 10.305 [cal/(mol K)]       43.115 [J/(mol K)]       0.01642167 [mEh/K]
  Correction Cp             0.000 [cal/(mol K)]        0.000 [J/(mol K)]       0.00000000 [mEh/K]

  ==> Thermochemistry Energy Analysis <==

  Raw electronic energy, E0
  Total E0, Electronic energy at well bottom at 0 [K]                 -834.49811922 [Eh]

  Zero-point energy, ZPE_vib = Sum_i nu_i / 2
    Electronic ZPE          0.000 [kcal/mol]        0.000 [kJ/mol]       0.00000000 [Eh]
    Translational ZPE       0.000 [kcal/mol]        0.000 [kJ/mol]       0.00000000 [Eh]
    Rotational ZPE          0.000 [kcal/mol]        0.000 [kJ/mol]       0.00000000 [Eh]
    Vibrational ZPE         4.729 [kcal/mol]       19.788 [kJ/mol]       0.00753668 [Eh]        1654.109 [cm^-1]
  Correction ZPE            4.729 [kcal/mol]       19.788 [kJ/mol]       0.00753668 [Eh]        1654.109 [cm^-1]
  Total ZPE, Electronic energy at 0 [K]                               -834.49058255 [Eh]

  Thermal Energy, E (includes ZPE)
    Electronic E            0.000 [kcal/mol]        0.000 [kJ/mol]       0.00000000 [Eh]
    Translational E         0.889 [kcal/mol]        3.718 [kJ/mol]       0.00141628 [Eh]
    Rotational E            0.592 [kcal/mol]        2.479 [kJ/mol]       0.00094418 [Eh]
    Vibrational E           5.081 [kcal/mol]       21.260 [kJ/mol]       0.00809768 [Eh]
  Correction E              6.563 [kcal/mol]       27.458 [kJ/mol]       0.01045814 [Eh]
  Total E, Electronic energy at  298.15 [K]                           -834.48766108 [Eh]

  Enthalpy, H_trans = E_trans + k_B * T
    Electronic H            0.000 [kcal/mol]        0.000 [kJ/mol]       0.00000000 [Eh]
    Translational H         1.481 [kcal/mol]        6.197 [kJ/mol]       0.00236046 [Eh]
    Rotational H            0.592 [kcal/mol]        2.479 [kJ/mol]       0.00094418 [Eh]
    Vibrational H           5.081 [kcal/mol]       21.260 [kJ/mol]       0.00809768 [Eh]
  Correction H              7.155 [kcal/mol]       29.937 [kJ/mol]       0.01140233 [Eh]
  Total H, Enthalpy at  298.15 [K]                                    -834.48671690 [Eh]

  Gibbs free energy, G = H - T * S
    Electronic G            0.000 [kcal/mol]        0.000 [kJ/mol]       0.00000000 [Eh]
    Translational G       -10.116 [kcal/mol]      -42.326 [kJ/mol]      -0.01612112 [Eh]
    Rotational G           -4.057 [kcal/mol]      -16.972 [kJ/mol]      -0.00646445 [Eh]
    Vibrational G           4.597 [kcal/mol]       19.233 [kJ/mol]       0.00732534 [Eh]
  Correction G             -9.576 [kcal/mol]      -40.066 [kJ/mol]      -0.01526022 [Eh]
  Total G, Free enthalpy at  298.15 [K]                               -834.51337944 [Eh]

*** Psi4 exiting successfully. Buy a developer a beer!
