                               Psi4 1.3.2 release

  ==> Input File <==

--------------------------------------------------------------------------
memory 144 GB

molecule {
0 1
C 0.0000000000 0.0000000000 0.0000000000
S 0.0000000000 0.0000000000 1.5415329200
}

set dynamic_level 1
set basis aug-cc-pV(Q+d)Z

optimize("wB97M-V")
frequencies("wB97M-V")
--------------------------------------------------------------------------

    Molecular point group: c2v
  Charge       = 0
  Multiplicity = 1
  Basis Set: AUG-CC-PV(Q+D)Z
    Blend: AUG-CC-PV(Q+D)Z
  Basis Set: (AUG-CC-PV(Q+D)Z AUX)
    Blend: AUG-CC-PVQZ-JKFIT
  @DF-RKS Final Energy:  -436.22284003415888
    Total Energy =                       -436.2228400341588781
    Molecular point group: c2v
  Basis Set: AUG-CC-PV(Q+D)Z
    Blend: AUG-CC-PV(Q+D)Z
  Basis Set: (AUG-CC-PV(Q+D)Z AUX)
    Blend: AUG-CC-PVQZ-JKFIT
  @DF-RKS Final Energy:  -436.22280336038421
    Total Energy =                       -436.2228033603842050
  Basis Set: AUG-CC-PV(Q+D)Z
    Blend: AUG-CC-PV(Q+D)Z
  Basis Set: (AUG-CC-PV(Q+D)Z AUX)
    Blend: AUG-CC-PVQZ-JKFIT
  @DF-RKS Final Energy:  -436.22287514469230
    Total Energy =                       -436.2228751446922956
  Basis Set: AUG-CC-PV(Q+D)Z
    Blend: AUG-CC-PV(Q+D)Z
  Basis Set: (AUG-CC-PV(Q+D)Z AUX)
    Blend: AUG-CC-PVQZ-JKFIT
  @DF-RKS Final Energy:  -436.22323242744739
    Total Energy =                       -436.2232324274473854
  @DF-RKS Final Energy:  -436.22322755379952
    Total Energy =                       -436.2232275537994610
  @DF-RKS Final Energy:  -436.22323558309267
    Total Energy =                       -436.2232355830926736
  @DF-RKS Final Energy:  -436.22323709309956
    Total Energy =                       -436.2232370930995558
  @DF-RKS Final Energy:  -436.22323643632217
    Total Energy =                       -436.2232364363222246
  @DF-RKS Final Energy:  -436.22323601102812
    Total Energy =                       -436.2232360110280638
  **** Optimization is complete! (in 3 steps) ****
    Final optimized geometry and variables:
  @DF-RKS Final Energy:  -436.22323709309899
    Total Energy =                       -436.2232370930989873
  @DF-RKS Final Energy:  -436.22323643483440
    Total Energy =                       -436.2232364348344618
  Basis Set: AUG-CC-PV(Q+D)Z
    Blend: AUG-CC-PV(Q+D)Z
  Basis Set: (AUG-CC-PV(Q+D)Z AUX)
    Blend: AUG-CC-PVQZ-JKFIT
  @DF-RKS Final Energy:  -436.22323601102801
    Total Energy =                       -436.2232360110280638
  Basis Set: AUG-CC-PV(Q+D)Z
    Blend: AUG-CC-PV(Q+D)Z
  Basis Set: (AUG-CC-PV(Q+D)Z AUX)
    Blend: AUG-CC-PVQZ-JKFIT
  @DF-RKS Final Energy:  -436.22323709309956
    Total Energy =                       -436.2232370930994989
  Multiplicity = 1
  Basis Set: AUG-CC-PV(Q+D)Z
    Blend: AUG-CC-PV(Q+D)Z
  Basis Set: (AUG-CC-PV(Q+D)Z AUX)
    Blend: AUG-CC-PVQZ-JKFIT
  @DF-RKS Final Energy:  -436.22323643483463
    Total Energy =                       -436.2232364348345754
    Molecular point group: c2v

    Geometry (in Angstrom), charge = 0, multiplicity = 1:

       Center              X                  Y                   Z               Mass
    ------------   -----------------  -----------------  -----------------  -----------------
         C            0.000000000000     0.000000000000    -1.105951636550    12.000000000000
         S            0.000000000000     0.000000000000     0.415094147833    31.972071174400

  Charge       = 0
  Multiplicity = 1
  Basis Set: AUG-CC-PV(Q+D)Z
    Blend: AUG-CC-PV(Q+D)Z
  Basis Set: (AUG-CC-PV(Q+D)Z AUX)
    Blend: AUG-CC-PVQZ-JKFIT

    Orbital Energies [Eh]
    ---------------------

    Doubly Occupied:

       1A1   -89.253159     2A1   -10.442541     3A1    -8.172006
       1B1    -6.078839     1B2    -6.078839     4A1    -6.077667
       5A1    -0.960996     6A1    -0.630402     2B2    -0.453627
       2B1    -0.453627     7A1    -0.414141

  @DF-RKS Final Energy:  -436.22323601102818

   => Energetics <=

    Nuclear Repulsion Energy =             33.3987396999489548
    One-Electron Energy =                -666.4539879018318516
    Two-Electron Energy =                 220.3077718167603791
    DFT Exchange-Correlation Energy =     -23.5677945732461325
    Empirical Dispersion Energy =           0.0000000000000000
    VV10 Nonlocal Energy =                  0.0920349473405404
    Total Energy =                       -436.2232360110281775

  Dipole Moment: [D]
     X:     0.0000      Y:     0.0000      Z:     2.0066     Total:     2.0066

  Vibration                       6
  Freq [cm^-1]                1356.2847
  Irrep                           A1
  Reduced mass [u]             14.4661
  Force const [mDyne/A]        15.6784

  ==> Thermochemistry Components <==

  Entropy, S
    Electronic S            0.000 [cal/(mol K)]        0.000 [J/(mol K)]       0.00000000 [mEh/K] (multiplicity = 1)
    Translational S        37.269 [cal/(mol K)]      155.933 [J/(mol K)]       0.05939180 [mEh/K] (mol. weight = 43.9721 [u], P = 101325.00 [Pa])
    Rotational S           12.947 [cal/(mol K)]       54.170 [J/(mol K)]       0.02063237 [mEh/K] (symmetry no. = 1)
    Vibrational S           0.022 [cal/(mol K)]        0.090 [J/(mol K)]       0.00003439 [mEh/K]
  Total S                  50.237 [cal/(mol K)]      210.194 [J/(mol K)]       0.08005855 [mEh/K]
  Correction S              0.000 [cal/(mol K)]        0.000 [J/(mol K)]       0.00000000 [mEh/K]

  Constant volume heat capacity, Cv
    Electronic Cv           0.000 [cal/(mol K)]        0.000 [J/(mol K)]       0.00000000 [mEh/K]
    Translational Cv        2.981 [cal/(mol K)]       12.472 [J/(mol K)]       0.00475022 [mEh/K]
    Rotational Cv           1.987 [cal/(mol K)]        8.314 [J/(mol K)]       0.00316681 [mEh/K]
    Vibrational Cv          0.123 [cal/(mol K)]        0.513 [J/(mol K)]       0.00019554 [mEh/K]
  Total Cv                  5.091 [cal/(mol K)]       21.300 [J/(mol K)]       0.00811257 [mEh/K]
  Correction Cv             0.000 [cal/(mol K)]        0.000 [J/(mol K)]       0.00000000 [mEh/K]

  Constant pressure heat capacity, Cp
    Electronic Cp           0.000 [cal/(mol K)]        0.000 [J/(mol K)]       0.00000000 [mEh/K]
    Translational Cp        4.968 [cal/(mol K)]       20.786 [J/(mol K)]       0.00791703 [mEh/K]
    Rotational Cp           1.987 [cal/(mol K)]        8.314 [J/(mol K)]       0.00316681 [mEh/K]
    Vibrational Cp          0.123 [cal/(mol K)]        0.513 [J/(mol K)]       0.00019554 [mEh/K]
  Total Cp                  7.078 [cal/(mol K)]       29.614 [J/(mol K)]       0.01127938 [mEh/K]
  Correction Cp             0.000 [cal/(mol K)]        0.000 [J/(mol K)]       0.00000000 [mEh/K]

  ==> Thermochemistry Energy Analysis <==

  Raw electronic energy, E0
  Total E0, Electronic energy at well bottom at 0 [K]                 -436.22323709 [Eh]

  Zero-point energy, ZPE_vib = Sum_i nu_i / 2
    Electronic ZPE          0.000 [kcal/mol]        0.000 [kJ/mol]       0.00000000 [Eh]
    Translational ZPE       0.000 [kcal/mol]        0.000 [kJ/mol]       0.00000000 [Eh]
    Rotational ZPE          0.000 [kcal/mol]        0.000 [kJ/mol]       0.00000000 [Eh]
    Vibrational ZPE         1.939 [kcal/mol]        8.112 [kJ/mol]       0.00308984 [Eh]         678.142 [cm^-1]
  Correction ZPE            1.939 [kcal/mol]        8.112 [kJ/mol]       0.00308984 [Eh]         678.142 [cm^-1]
  Total ZPE, Electronic energy at 0 [K]                               -436.22014725 [Eh]

  Thermal Energy, E (includes ZPE)
    Electronic E            0.000 [kcal/mol]        0.000 [kJ/mol]       0.00000000 [Eh]
    Translational E         0.889 [kcal/mol]        3.718 [kJ/mol]       0.00141628 [Eh]
    Rotational E            0.592 [kcal/mol]        2.479 [kJ/mol]       0.00094418 [Eh]
    Vibrational E           1.944 [kcal/mol]        8.136 [kJ/mol]       0.00309874 [Eh]
  Correction E              3.426 [kcal/mol]       14.333 [kJ/mol]       0.00545920 [Eh]
  Total E, Electronic energy at  298.15 [K]                           -436.21777789 [Eh]

  Enthalpy, H_trans = E_trans + k_B * T
    Electronic H            0.000 [kcal/mol]        0.000 [kJ/mol]       0.00000000 [Eh]
    Translational H         1.481 [kcal/mol]        6.197 [kJ/mol]       0.00236046 [Eh]
    Rotational H            0.592 [kcal/mol]        2.479 [kJ/mol]       0.00094418 [Eh]
    Vibrational H           1.944 [kcal/mol]        8.136 [kJ/mol]       0.00309874 [Eh]
  Correction H              4.018 [kcal/mol]       16.812 [kJ/mol]       0.00640338 [Eh]
  Total H, Enthalpy at  298.15 [K]                                    -436.21683371 [Eh]

  Gibbs free energy, G = H - T * S
    Electronic G            0.000 [kcal/mol]        0.000 [kJ/mol]       0.00000000 [Eh]
    Translational G        -9.631 [kcal/mol]      -40.294 [kJ/mol]      -0.01534720 [Eh]
    Rotational G           -3.268 [kcal/mol]      -13.672 [kJ/mol]      -0.00520736 [Eh]
    Vibrational G           1.938 [kcal/mol]        8.109 [kJ/mol]       0.00308849 [Eh]
  Correction G            -10.960 [kcal/mol]      -45.857 [kJ/mol]      -0.01746607 [Eh]
  Total G, Free enthalpy at  298.15 [K]                               -436.24070317 [Eh]

*** Psi4 exiting successfully. Buy a developer a beer!
