                               Psi4 1.3.2 release

  ==> Input File <==

--------------------------------------------------------------------------
memory 144 GB

molecule {
0 1
F 0.0000000000 0.0000000000 0.0000000000
F 0.0000000000 0.0000000000 1.4129000000
}

set dynamic_level 1
set basis aug-cc-pV(Q+d)Z

optimize("wB97M-V")
frequencies("wB97M-V")
--------------------------------------------------------------------------

    Molecular point group: d2h
  Charge       = 0
  Multiplicity = 1
  Basis Set: AUG-CC-PV(Q+D)Z
    Blend: AUG-CC-PV(Q+D)Z
  Basis Set: (AUG-CC-PV(Q+D)Z AUX)
    Blend: AUG-CC-PVQZ-JKFIT
  @DF-RKS Final Energy:  -199.55651178639584
    Total Energy =                       -199.5565117863958733
    Molecular point group: d2h
  Basis Set: AUG-CC-PV(Q+D)Z
    Blend: AUG-CC-PV(Q+D)Z
  Basis Set: (AUG-CC-PV(Q+D)Z AUX)
    Blend: AUG-CC-PVQZ-JKFIT
  @DF-RKS Final Energy:  -199.55647260535969
    Total Energy =                       -199.5564726053596871
  Basis Set: AUG-CC-PV(Q+D)Z
    Blend: AUG-CC-PV(Q+D)Z
  Basis Set: (AUG-CC-PV(Q+D)Z AUX)
    Blend: AUG-CC-PVQZ-JKFIT
  @DF-RKS Final Energy:  -199.55655002492017
    Total Energy =                       -199.5565500249201705
  Basis Set: AUG-CC-PV(Q+D)Z
    Blend: AUG-CC-PV(Q+D)Z
  Basis Set: (AUG-CC-PV(Q+D)Z AUX)
    Blend: AUG-CC-PVQZ-JKFIT
  @DF-RKS Final Energy:  -199.55724699536458
    Total Energy =                       -199.5572469953645793
  @DF-RKS Final Energy:  -199.55724249739956
    Total Energy =                       -199.5572424973995567
  @DF-RKS Final Energy:  -199.55725036659450
    Total Energy =                       -199.5572503665945021
  @DF-RKS Final Energy:  -199.55725376560542
    Total Energy =                       -199.5572537656054237
  @DF-RKS Final Energy:  -199.55725358835855
    Total Energy =                       -199.5572535883585488
  @DF-RKS Final Energy:  -199.55725279373968
    Total Energy =                       -199.5572527937396785
  **** Optimization is complete! (in 3 steps) ****
    Final optimized geometry and variables:
  @DF-RKS Final Energy:  -199.55725376560522
    Total Energy =                       -199.5572537656052248
  @DF-RKS Final Energy:  -199.55725358835838
    Total Energy =                       -199.5572535883583782
  Basis Set: AUG-CC-PV(Q+D)Z
    Blend: AUG-CC-PV(Q+D)Z
  Basis Set: (AUG-CC-PV(Q+D)Z AUX)
    Blend: AUG-CC-PVQZ-JKFIT
  @DF-RKS Final Energy:  -199.55725279373968
    Total Energy =                       -199.5572527937397069
  Basis Set: AUG-CC-PV(Q+D)Z
    Blend: AUG-CC-PV(Q+D)Z
  Basis Set: (AUG-CC-PV(Q+D)Z AUX)
    Blend: AUG-CC-PVQZ-JKFIT
  @DF-RKS Final Energy:  -199.55725376560534
    Total Energy =                       -199.5572537656053669
  Multiplicity = 1
  Basis Set: AUG-CC-PV(Q+D)Z
    Blend: AUG-CC-PV(Q+D)Z
  Basis Set: (AUG-CC-PV(Q+D)Z AUX)
    Blend: AUG-CC-PVQZ-JKFIT
  @DF-RKS Final Energy:  -199.55725358835844
    Total Energy =                       -199.5572535883584351
    Molecular point group: d2h

    Geometry (in Angstrom), charge = 0, multiplicity = 1:

       Center              X                  Y                   Z               Mass
    ------------   -----------------  -----------------  -----------------  -----------------
         F            0.000000000000     0.000000000000    -0.689930958964    18.998403162730
         F            0.000000000000     0.000000000000     0.689930958964    18.998403162730

  Charge       = 0
  Multiplicity = 1
  Basis Set: AUG-CC-PV(Q+D)Z
    Blend: AUG-CC-PV(Q+D)Z
  Basis Set: (AUG-CC-PV(Q+D)Z AUX)
    Blend: AUG-CC-PVQZ-JKFIT

    Orbital Energies [Eh]
    ---------------------

    Doubly Occupied:

       1Ag   -25.013068     1B1u  -25.013055     2Ag    -1.501762
       2B1u   -1.240237     3Ag    -0.716511     1B3u   -0.667331
       1B2u   -0.667331     1B2g   -0.524480     1B3g   -0.524480

  @DF-RKS Final Energy:  -199.55725279373959

   => Energetics <=

    Nuclear Repulsion Energy =             31.0635096942185136
    One-Electron Energy =                -339.8809079571522034
    Two-Electron Energy =                 124.5219431477480043
    DFT Exchange-Correlation Energy =     -15.3388229385599804
    Empirical Dispersion Energy =           0.0000000000000000
    VV10 Nonlocal Energy =                  0.0770252600060840
    Total Energy =                       -199.5572527937395932

  Dipole Moment: [D]
     X:     0.0000      Y:     0.0000      Z:     0.0000     Total:     0.0000

  Vibration                       6
  Freq [cm^-1]                1102.0862
  Irrep                           Ag
  Reduced mass [u]             18.9984
  Force const [mDyne/A]        13.5956

  ==> Thermochemistry Components <==

  Entropy, S
    Electronic S            0.000 [cal/(mol K)]        0.000 [J/(mol K)]       0.00000000 [mEh/K] (multiplicity = 1)
    Translational S        36.834 [cal/(mol K)]      154.112 [J/(mol K)]       0.05869802 [mEh/K] (mol. weight = 37.9968 [u], P = 101325.00 [Pa])
    Rotational S           11.351 [cal/(mol K)]       47.494 [J/(mol K)]       0.01808968 [mEh/K] (symmetry no. = 2)
    Vibrational S           0.062 [cal/(mol K)]        0.259 [J/(mol K)]       0.00009851 [mEh/K]
  Total S                  48.247 [cal/(mol K)]      201.865 [J/(mol K)]       0.07688620 [mEh/K]
  Correction S              0.000 [cal/(mol K)]        0.000 [J/(mol K)]       0.00000000 [mEh/K]

  Constant volume heat capacity, Cv
    Electronic Cv           0.000 [cal/(mol K)]        0.000 [J/(mol K)]       0.00000000 [mEh/K]
    Translational Cv        2.981 [cal/(mol K)]       12.472 [J/(mol K)]       0.00475022 [mEh/K]
    Rotational Cv           1.987 [cal/(mol K)]        8.314 [J/(mol K)]       0.00316681 [mEh/K]
    Vibrational Cv          0.278 [cal/(mol K)]        1.164 [J/(mol K)]       0.00044332 [mEh/K]
  Total Cv                  5.246 [cal/(mol K)]       21.950 [J/(mol K)]       0.00836035 [mEh/K]
  Correction Cv             0.000 [cal/(mol K)]        0.000 [J/(mol K)]       0.00000000 [mEh/K]

  Constant pressure heat capacity, Cp
    Electronic Cp           0.000 [cal/(mol K)]        0.000 [J/(mol K)]       0.00000000 [mEh/K]
    Translational Cp        4.968 [cal/(mol K)]       20.786 [J/(mol K)]       0.00791703 [mEh/K]
    Rotational Cp           1.987 [cal/(mol K)]        8.314 [J/(mol K)]       0.00316681 [mEh/K]
    Vibrational Cp          0.278 [cal/(mol K)]        1.164 [J/(mol K)]       0.00044332 [mEh/K]
  Total Cp                  7.233 [cal/(mol K)]       30.265 [J/(mol K)]       0.01152716 [mEh/K]
  Correction Cp             0.000 [cal/(mol K)]        0.000 [J/(mol K)]       0.00000000 [mEh/K]

  ==> Thermochemistry Energy Analysis <==

  Raw electronic energy, E0
  Total E0, Electronic energy at well bottom at 0 [K]                 -199.55725377 [Eh]

  Zero-point energy, ZPE_vib = Sum_i nu_i / 2
    Electronic ZPE          0.000 [kcal/mol]        0.000 [kJ/mol]       0.00000000 [Eh]
    Translational ZPE       0.000 [kcal/mol]        0.000 [kJ/mol]       0.00000000 [Eh]
    Rotational ZPE          0.000 [kcal/mol]        0.000 [kJ/mol]       0.00000000 [Eh]
    Vibrational ZPE         1.576 [kcal/mol]        6.592 [kJ/mol]       0.00251074 [Eh]         551.043 [cm^-1]
  Correction ZPE            1.576 [kcal/mol]        6.592 [kJ/mol]       0.00251074 [Eh]         551.043 [cm^-1]
  Total ZPE, Electronic energy at 0 [K]                               -199.55474303 [Eh]

  Thermal Energy, E (includes ZPE)
    Electronic E            0.000 [kcal/mol]        0.000 [kJ/mol]       0.00000000 [Eh]
    Translational E         0.889 [kcal/mol]        3.718 [kJ/mol]       0.00141628 [Eh]
    Rotational E            0.592 [kcal/mol]        2.479 [kJ/mol]       0.00094418 [Eh]
    Vibrational E           1.591 [kcal/mol]        6.657 [kJ/mol]       0.00253547 [Eh]
  Correction E              3.072 [kcal/mol]       12.854 [kJ/mol]       0.00489593 [Eh]
  Total E, Electronic energy at  298.15 [K]                           -199.55235784 [Eh]

  Enthalpy, H_trans = E_trans + k_B * T
    Electronic H            0.000 [kcal/mol]        0.000 [kJ/mol]       0.00000000 [Eh]
    Translational H         1.481 [kcal/mol]        6.197 [kJ/mol]       0.00236046 [Eh]
    Rotational H            0.592 [kcal/mol]        2.479 [kJ/mol]       0.00094418 [Eh]
    Vibrational H           1.591 [kcal/mol]        6.657 [kJ/mol]       0.00253547 [Eh]
  Correction H              3.665 [kcal/mol]       15.333 [kJ/mol]       0.00584011 [Eh]
  Total H, Enthalpy at  298.15 [K]                                    -199.55141365 [Eh]

  Gibbs free energy, G = H - T * S
    Electronic G            0.000 [kcal/mol]        0.000 [kJ/mol]       0.00000000 [Eh]
    Translational G        -9.501 [kcal/mol]      -39.751 [kJ/mol]      -0.01514035 [Eh]
    Rotational G           -2.792 [kcal/mol]      -11.682 [kJ/mol]      -0.00444925 [Eh]
    Vibrational G           1.573 [kcal/mol]        6.580 [kJ/mol]       0.00250610 [Eh]
  Correction G            -10.720 [kcal/mol]      -44.853 [kJ/mol]      -0.01708351 [Eh]
  Total G, Free enthalpy at  298.15 [K]                               -199.57433727 [Eh]

*** Psi4 exiting successfully. Buy a developer a beer!
