                               Psi4 1.3.2 release

  ==> Input File <==

--------------------------------------------------------------------------
memory 144 GB

molecule {
0 1
O 0.0000000000 0.0000000000 0.0000000000
C 0.0000000000 0.0000000000 1.2066000000
H 0.9369544103 0.0000000000 1.7870836544
H -0.9369544103 0.0000000000 1.7870836544
}

set dynamic_level 1
set basis aug-cc-pV(Q+d)Z

optimize("wB97M-V")
frequencies("wB97M-V")
--------------------------------------------------------------------------

    Molecular point group: c2v
  Charge       = 0
  Multiplicity = 1
  Basis Set: AUG-CC-PV(Q+D)Z
    Blend: AUG-CC-PV(Q+D)Z
  Basis Set: (AUG-CC-PV(Q+D)Z AUX)
    Blend: AUG-CC-PVQZ-JKFIT
  @DF-RKS Final Energy:  -114.51364026972928
    Total Energy =                       -114.5136402697292795
    Molecular point group: c2v
  Basis Set: AUG-CC-PV(Q+D)Z
    Blend: AUG-CC-PV(Q+D)Z
  Basis Set: (AUG-CC-PV(Q+D)Z AUX)
    Blend: AUG-CC-PVQZ-JKFIT
  @DF-RKS Final Energy:  -114.51361100492917
    Total Energy =                       -114.5136110049291744
  Basis Set: AUG-CC-PV(Q+D)Z
    Blend: AUG-CC-PV(Q+D)Z
  Basis Set: (AUG-CC-PV(Q+D)Z AUX)
    Blend: AUG-CC-PVQZ-JKFIT
  @DF-RKS Final Energy:  -114.51366667743723
    Total Energy =                       -114.5136666774372287
  Basis Set: AUG-CC-PV(Q+D)Z
    Blend: AUG-CC-PV(Q+D)Z
  Basis Set: (AUG-CC-PV(Q+D)Z AUX)
    Blend: AUG-CC-PVQZ-JKFIT
  @DF-RKS Final Energy:  -114.51364355109632
    Total Energy =                       -114.5136435510963224
  @DF-RKS Final Energy:  -114.51363304579945
    Total Energy =                       -114.5136330457994518
  @DF-RKS Final Energy:  -114.51363557540444
    Total Energy =                       -114.5136355754044217
  @DF-RKS Final Energy:  -114.51363842720519
    Total Energy =                       -114.5136384272051941
  @DF-RKS Final Energy:  -114.51376970495858
    Total Energy =                       -114.5137697049585768
  @DF-RKS Final Energy:  -114.51376477056908
    Total Energy =                       -114.5137647705690824
  @DF-RKS Final Energy:  -114.51377164062376
    Total Energy =                       -114.5137716406237587
  @DF-RKS Final Energy:  -114.51377275386432
    Total Energy =                       -114.5137727538643304
  @DF-RKS Final Energy:  -114.51376271516270
    Total Energy =                       -114.5137627151626987
  @DF-RKS Final Energy:  -114.51376450052177
    Total Energy =                       -114.5137645005217735
  @DF-RKS Final Energy:  -114.51376837882152
    Total Energy =                       -114.5137683788215242
  @DF-RKS Final Energy:  -114.51377428858160
    Total Energy =                       -114.5137742885816010
  @DF-RKS Final Energy:  -114.51377275332081
    Total Energy =                       -114.5137727533208221
  @DF-RKS Final Energy:  -114.51377280259385
    Total Energy =                       -114.5137728025938628
  @DF-RKS Final Energy:  -114.51377353530805
    Total Energy =                       -114.5137735353080473
  @DF-RKS Final Energy:  -114.51377109462798
    Total Energy =                       -114.5137710946279839
  @DF-RKS Final Energy:  -114.51377094182622
    Total Energy =                       -114.5137709418262233
  **** Optimization is complete! (in 4 steps) ****
    Final optimized geometry and variables:
  @DF-RKS Final Energy:  -114.51377133758660
    Total Energy =                       -114.5137713375865900
  @DF-RKS Final Energy:  -114.51377122189534
    Total Energy =                       -114.5137712218953396
  @DF-RKS Final Energy:  -114.51377452480148
    Total Energy =                       -114.5137745248014767
  @DF-RKS Final Energy:  -114.51377301759103
    Total Energy =                       -114.5137730175910065
  @DF-RKS Final Energy:  -114.51377300856450
    Total Energy =                       -114.5137730085645131
  @DF-RKS Final Energy:  -114.51377264502088
    Total Energy =                       -114.5137726450208788
  @DF-RKS Final Energy:  -114.51377245833845
    Total Energy =                       -114.5137724583384511
  @DF-RKS Final Energy:  -114.51377133758680
    Total Energy =                       -114.5137713375868032
  @DF-RKS Final Energy:  -114.51377122189569
    Total Energy =                       -114.5137712218956949
  @DF-RKS Final Energy:  -114.51377125123754
    Total Energy =                       -114.5137712512375430
  @DF-RKS Final Energy:  -114.51377143544210
    Total Energy =                       -114.5137714354420950
  @DF-RKS Final Energy:  -114.51376993981890
    Total Energy =                       -114.5137699398189000
  @DF-RKS Final Energy:  -114.51377005568104
    Total Energy =                       -114.5137700556810501
  @DF-RKS Final Energy:  -114.51377167943107
    Total Energy =                       -114.5137716794310734
  @DF-RKS Final Energy:  -114.51377198592807
    Total Energy =                       -114.5137719859280736
  @DF-RKS Final Energy:  -114.51377376615574
    Total Energy =                       -114.5137737661557367
  Basis Set: AUG-CC-PV(Q+D)Z
    Blend: AUG-CC-PV(Q+D)Z
  Basis Set: (AUG-CC-PV(Q+D)Z AUX)
    Blend: AUG-CC-PVQZ-JKFIT
  @DF-RKS Final Energy:  -114.51377032111864
    Total Energy =                       -114.5137703211186420
  Basis Set: AUG-CC-PV(Q+D)Z
    Blend: AUG-CC-PV(Q+D)Z
  Basis Set: (AUG-CC-PV(Q+D)Z AUX)
    Blend: AUG-CC-PVQZ-JKFIT
  @DF-RKS Final Energy:  -114.51376958783274
    Total Energy =                       -114.5137695878327548
  Multiplicity = 1
  Basis Set: AUG-CC-PV(Q+D)Z
    Blend: AUG-CC-PV(Q+D)Z
  Basis Set: (AUG-CC-PV(Q+D)Z AUX)
    Blend: AUG-CC-PVQZ-JKFIT
  @DF-RKS Final Energy:  -114.51376958955099
    Total Energy =                       -114.5137695895509893
    Molecular point group: cs

    Geometry (in Angstrom), charge = 0, multiplicity = 1:

       Center              X                  Y                   Z               Mass
    ------------   -----------------  -----------------  -----------------  -----------------
         O            0.000000000000    -0.000096333370    -0.598220665741    15.994914619570
         C            0.000000000000     0.000392941160     0.599118936652    12.000000000000
         H            0.937746681590    -0.001574901294     1.180294771554     1.007825032230
         H           -0.937746681590    -0.001574901294     1.180294771554     1.007825032230

  Charge       = 0
  Multiplicity = 1
  Basis Set: AUG-CC-PV(Q+D)Z
    Blend: AUG-CC-PV(Q+D)Z
  Basis Set: (AUG-CC-PV(Q+D)Z AUX)
    Blend: AUG-CC-PVQZ-JKFIT

    Orbital Energies [Eh]
    ---------------------

    Doubly Occupied:

       1Ap   -19.352486     2Ap   -10.442943     3Ap    -1.198326
       4Ap    -0.755412     1App   -0.612437     5Ap    -0.568052
       6Ap    -0.513539     2App   -0.377951

  @DF-RKS Final Energy:  -114.51377383786856

   => Energetics <=

    Nuclear Repulsion Energy =             31.4632729929175881
    One-Electron Energy =                -217.7658616993794851
    Two-Electron Energy =                  82.2085205329423445
    DFT Exchange-Correlation Energy =     -10.4861997634702284
    Empirical Dispersion Energy =           0.0000000000000000
    VV10 Nonlocal Energy =                  0.0664940991212291
    Total Energy =                       -114.5137738378685555

  Dipole Moment: [D]
     X:     0.0000      Y:    -0.0010      Z:     2.4036     Total:     2.4036

  Vibration                       7                   8                   9
  Freq [cm^-1]                1205.0538           1266.3522           1529.3757
  Irrep                           B2                  B1                  A1
  Reduced mass [u]              1.3662              1.3439              1.0937
  Force const [mDyne/A]         1.1689              1.2698              1.5072

  Vibration                       10                  11                  12
  Freq [cm^-1]                1839.1905           2916.3673           2981.0332
  Irrep                           A1                  A1                  B1
  Reduced mass [u]              8.0235              1.0438              1.1200
  Force const [mDyne/A]        15.9906              5.2305              5.8641

  ==> Thermochemistry Components <==

  Entropy, S
    Electronic S            0.000 [cal/(mol K)]        0.000 [J/(mol K)]       0.00000000 [mEh/K] (multiplicity = 1)
    Translational S        36.130 [cal/(mol K)]      151.169 [J/(mol K)]       0.05757719 [mEh/K] (mol. weight = 30.0106 [u], P = 101325.00 [Pa])
    Rotational S           15.989 [cal/(mol K)]       66.899 [J/(mol K)]       0.02548044 [mEh/K] (symmetry no. = 2)
    Vibrational S           0.085 [cal/(mol K)]        0.356 [J/(mol K)]       0.00013558 [mEh/K]
  Total S                  52.205 [cal/(mol K)]      218.424 [J/(mol K)]       0.08319321 [mEh/K]
  Correction S              0.000 [cal/(mol K)]        0.000 [J/(mol K)]       0.00000000 [mEh/K]

  Constant volume heat capacity, Cv
    Electronic Cv           0.000 [cal/(mol K)]        0.000 [J/(mol K)]       0.00000000 [mEh/K]
    Translational Cv        2.981 [cal/(mol K)]       12.472 [J/(mol K)]       0.00475022 [mEh/K]
    Rotational Cv           2.981 [cal/(mol K)]       12.472 [J/(mol K)]       0.00475022 [mEh/K]
    Vibrational Cv          0.457 [cal/(mol K)]        1.912 [J/(mol K)]       0.00072816 [mEh/K]
  Total Cv                  6.419 [cal/(mol K)]       26.855 [J/(mol K)]       0.01022859 [mEh/K]
  Correction Cv             0.000 [cal/(mol K)]        0.000 [J/(mol K)]       0.00000000 [mEh/K]

  Constant pressure heat capacity, Cp
    Electronic Cp           0.000 [cal/(mol K)]        0.000 [J/(mol K)]       0.00000000 [mEh/K]
    Translational Cp        4.968 [cal/(mol K)]       20.786 [J/(mol K)]       0.00791703 [mEh/K]
    Rotational Cp           2.981 [cal/(mol K)]       12.472 [J/(mol K)]       0.00475022 [mEh/K]
    Vibrational Cp          0.457 [cal/(mol K)]        1.912 [J/(mol K)]       0.00072816 [mEh/K]
  Total Cp                  8.406 [cal/(mol K)]       35.170 [J/(mol K)]       0.01339540 [mEh/K]
  Correction Cp             0.000 [cal/(mol K)]        0.000 [J/(mol K)]       0.00000000 [mEh/K]

  ==> Thermochemistry Energy Analysis <==

  Raw electronic energy, E0
  Total E0, Electronic energy at well bottom at 0 [K]                 -114.51377452 [Eh]

  Zero-point energy, ZPE_vib = Sum_i nu_i / 2
    Electronic ZPE          0.000 [kcal/mol]        0.000 [kJ/mol]       0.00000000 [Eh]
    Translational ZPE       0.000 [kcal/mol]        0.000 [kJ/mol]       0.00000000 [Eh]
    Rotational ZPE          0.000 [kcal/mol]        0.000 [kJ/mol]       0.00000000 [Eh]
    Vibrational ZPE        16.779 [kcal/mol]       70.205 [kJ/mol]       0.02673970 [Eh]        5868.686 [cm^-1]
  Correction ZPE           16.779 [kcal/mol]       70.205 [kJ/mol]       0.02673970 [Eh]        5868.686 [cm^-1]
  Total ZPE, Electronic energy at 0 [K]                               -114.48703482 [Eh]

  Thermal Energy, E (includes ZPE)
    Electronic E            0.000 [kcal/mol]        0.000 [kJ/mol]       0.00000000 [Eh]
    Translational E         0.889 [kcal/mol]        3.718 [kJ/mol]       0.00141628 [Eh]
    Rotational E            0.889 [kcal/mol]        3.718 [kJ/mol]       0.00141628 [Eh]
    Vibrational E          16.801 [kcal/mol]       70.296 [kJ/mol]       0.02677449 [Eh]
  Correction E             18.579 [kcal/mol]       77.733 [kJ/mol]       0.02960704 [Eh]
  Total E, Electronic energy at  298.15 [K]                           -114.48416748 [Eh]

  Enthalpy, H_trans = E_trans + k_B * T
    Electronic H            0.000 [kcal/mol]        0.000 [kJ/mol]       0.00000000 [Eh]
    Translational H         1.481 [kcal/mol]        6.197 [kJ/mol]       0.00236046 [Eh]
    Rotational H            0.889 [kcal/mol]        3.718 [kJ/mol]       0.00141628 [Eh]
    Vibrational H          16.801 [kcal/mol]       70.296 [kJ/mol]       0.02677449 [Eh]
  Correction H             19.171 [kcal/mol]       80.212 [kJ/mol]       0.03055123 [Eh]
  Total H, Enthalpy at  298.15 [K]                                    -114.48322330 [Eh]

  Gibbs free energy, G = H - T * S
    Electronic G            0.000 [kcal/mol]        0.000 [kJ/mol]       0.00000000 [Eh]
    Translational G        -9.291 [kcal/mol]      -38.874 [kJ/mol]      -0.01480618 [Eh]
    Rotational G           -3.878 [kcal/mol]      -16.227 [kJ/mol]      -0.00618072 [Eh]
    Vibrational G          16.776 [kcal/mol]       70.190 [kJ/mol]       0.02673406 [Eh]
  Correction G              3.606 [kcal/mol]       15.089 [kJ/mol]       0.00574717 [Eh]
  Total G, Free enthalpy at  298.15 [K]                               -114.50802735 [Eh]

*** Psi4 exiting successfully. Buy a developer a beer!
