                               Psi4 1.3.2 release

  ==> Input File <==

--------------------------------------------------------------------------
memory 144 GB

molecule {
0 1
S 0.0000000000 0.0000000000 0.0000000000
C 0.0000000000 0.0000000000 1.2066000000
H 0.9369544103 0.0000000000 1.7870836544
H -0.9369544103 0.0000000000 1.7870836544
}

set dynamic_level 1
set basis aug-cc-pV(Q+d)Z

optimize("wB97M-V")
frequencies("wB97M-V")
--------------------------------------------------------------------------

    Molecular point group: c2v
  Charge       = 0
  Multiplicity = 1
  Basis Set: AUG-CC-PV(Q+D)Z
    Blend: AUG-CC-PV(Q+D)Z
  Basis Set: (AUG-CC-PV(Q+D)Z AUX)
    Blend: AUG-CC-PVQZ-JKFIT
  @DF-RKS Final Energy:  -437.18852988026225
    Total Energy =                       -437.1885298802623083
    Molecular point group: c2v
  Basis Set: AUG-CC-PV(Q+D)Z
    Blend: AUG-CC-PV(Q+D)Z
  Basis Set: (AUG-CC-PV(Q+D)Z AUX)
    Blend: AUG-CC-PVQZ-JKFIT
  @DF-RKS Final Energy:  -437.19017962613316
    Total Energy =                       -437.1901796261332152
  Basis Set: AUG-CC-PV(Q+D)Z
    Blend: AUG-CC-PV(Q+D)Z
  Basis Set: (AUG-CC-PV(Q+D)Z AUX)
    Blend: AUG-CC-PVQZ-JKFIT
  @DF-RKS Final Energy:  -437.18687230339373
    Total Energy =                       -437.1868723033936135
  Basis Set: AUG-CC-PV(Q+D)Z
    Blend: AUG-CC-PV(Q+D)Z
  Basis Set: (AUG-CC-PV(Q+D)Z AUX)
    Blend: AUG-CC-PVQZ-JKFIT
  @DF-RKS Final Energy:  -437.18812529929858
    Total Energy =                       -437.1881252992985765
  @DF-RKS Final Energy:  -437.18892970174795
    Total Energy =                       -437.1889297017479521
  @DF-RKS Final Energy:  -437.18857921704387
    Total Energy =                       -437.1885792170438663
  @DF-RKS Final Energy:  -437.18847454763011
    Total Energy =                       -437.1884745476301646
  @DF-RKS Final Energy:  -437.36683930738775
    Total Energy =                       -437.3668393073877496
  @DF-RKS Final Energy:  -437.36758703857038
    Total Energy =                       -437.3675870385703774
  @DF-RKS Final Energy:  -437.36608730093917
    Total Energy =                       -437.3660873009391139
  @DF-RKS Final Energy:  -437.36660848193054
    Total Energy =                       -437.3666084819305411
  @DF-RKS Final Energy:  -437.36706577310201
    Total Energy =                       -437.3670657731020128
  @DF-RKS Final Energy:  -437.36688451442615
    Total Energy =                       -437.3668845144262036
  @DF-RKS Final Energy:  -437.36678805674097
    Total Energy =                       -437.3667880567409725
  @DF-RKS Final Energy:  -437.43143170955875
    Total Energy =                       -437.4314317095587512
  @DF-RKS Final Energy:  -437.43176587474051
    Total Energy =                       -437.4317658747405062
  @DF-RKS Final Energy:  -437.43109492252000
    Total Energy =                       -437.4310949225200034
  @DF-RKS Final Energy:  -437.43131102662494
    Total Energy =                       -437.4313110266249396
  @DF-RKS Final Energy:  -437.43154806696663
    Total Energy =                       -437.4315480669666272
  @DF-RKS Final Energy:  -437.43144021885485
    Total Energy =                       -437.4314402188547888
  **** Optimization is complete! (in 9 steps) ****
    Final optimized geometry and variables:
  @DF-RKS Final Energy:  -437.45863975394087
    Total Energy =                       -437.4586397539408722
  @DF-RKS Final Energy:  -437.45863973849441
    Total Energy =                       -437.4586397384944121
  @DF-RKS Final Energy:  -437.45864327813132
    Total Energy =                       -437.4586432781313761
  @DF-RKS Final Energy:  -437.45864271200583
    Total Energy =                       -437.4586427120058829
  @DF-RKS Final Energy:  -437.45864265673282
    Total Energy =                       -437.4586426567328203
  @DF-RKS Final Energy:  -437.45864129547397
    Total Energy =                       -437.4586412954739103
  @DF-RKS Final Energy:  -437.45864121271279
    Total Energy =                       -437.4586412127127346
  @DF-RKS Final Energy:  -437.45863975394133
    Total Energy =                       -437.4586397539412701
  @DF-RKS Final Energy:  -437.45863973849504
    Total Energy =                       -437.4586397384950374
  @DF-RKS Final Energy:  -437.45864074519238
    Total Energy =                       -437.4586407451923833
  @DF-RKS Final Energy:  -437.45864086401440
    Total Energy =                       -437.4586408640143418
  @DF-RKS Final Energy:  -437.45863908253733
    Total Energy =                       -437.4586390825373314
  @DF-RKS Final Energy:  -437.45863915445199
    Total Energy =                       -437.4586391544520438
  @DF-RKS Final Energy:  -437.45864078063971
    Total Energy =                       -437.4586407806397688
  @DF-RKS Final Energy:  -437.45864089815484
    Total Energy =                       -437.4586408981548971
  @DF-RKS Final Energy:  -437.45864280748924
    Total Energy =                       -437.4586428074892979
  Basis Set: AUG-CC-PV(Q+D)Z
    Blend: AUG-CC-PV(Q+D)Z
  Basis Set: (AUG-CC-PV(Q+D)Z AUX)
    Blend: AUG-CC-PVQZ-JKFIT
  @DF-RKS Final Energy:  -437.45863852235124
    Total Energy =                       -437.4586385223512934
  Basis Set: AUG-CC-PV(Q+D)Z
    Blend: AUG-CC-PV(Q+D)Z
  Basis Set: (AUG-CC-PV(Q+D)Z AUX)
    Blend: AUG-CC-PVQZ-JKFIT
  @DF-RKS Final Energy:  -437.45863806560322
    Total Energy =                       -437.4586380656031679
  Multiplicity = 1
  Basis Set: AUG-CC-PV(Q+D)Z
    Blend: AUG-CC-PV(Q+D)Z
  Basis Set: (AUG-CC-PV(Q+D)Z AUX)
    Blend: AUG-CC-PVQZ-JKFIT
  @DF-RKS Final Energy:  -437.45863807019725
    Total Energy =                       -437.4586380701971962
    Molecular point group: cs

    Geometry (in Angstrom), charge = 0, multiplicity = 1:

       Center              X                  Y                   Z               Mass
    ------------   -----------------  -----------------  -----------------  -----------------
         S            0.000000000000    -0.000036887295    -0.511950556408    31.972071174400
         C            0.000000000000     0.000370833252     1.085029434615    12.000000000000
         H            0.920415058872    -0.001622620850     1.660886713868     1.007825032230
         H           -0.920415058872    -0.001622620850     1.660886713868     1.007825032230

  Charge       = 0
  Multiplicity = 1
  Basis Set: AUG-CC-PV(Q+D)Z
    Blend: AUG-CC-PV(Q+D)Z
  Basis Set: (AUG-CC-PV(Q+D)Z AUX)
    Blend: AUG-CC-PVQZ-JKFIT

    Orbital Energies [Eh]
    ---------------------

    Doubly Occupied:

       1Ap   -89.206834     2Ap   -10.414126     3Ap    -8.121845
       4Ap    -6.032446     5Ap    -6.030011     1App   -6.023275
       6Ap    -0.925791     7Ap    -0.717243     2App   -0.574179
       8Ap    -0.498913     9Ap    -0.419654     3App   -0.328965

  @DF-RKS Final Energy:  -437.45864277726201

   => Energetics <=

    Nuclear Repulsion Energy =             45.1229969189981404
    One-Electron Energy =                -691.5755475662755316
    Two-Electron Energy =                 232.9065073149537000
    DFT Exchange-Correlation Energy =     -24.0118229727678241
    Empirical Dispersion Energy =           0.0000000000000000
    VV10 Nonlocal Energy =                  0.0992235278294697
    Total Energy =                       -437.4586427772620141

  Dipole Moment: [D]
     X:     0.0000      Y:    -0.0026      Z:     1.7231     Total:     1.7231

  Vibration                       7                   8                   9
  Freq [cm^-1]                 997.4419           1028.9908           1114.0968
  Irrep                           B1                  B2                  A1
  Reduced mass [u]              1.2082              1.2953              4.5070
  Force const [mDyne/A]         0.7082              0.8081              3.2960

  Vibration                       10                  11                  12
  Freq [cm^-1]                1491.6263           3087.7402           3170.7416
  Irrep                           A1                  A1                  B1
  Reduced mass [u]              1.1921              1.0511              1.1187
  Force const [mDyne/A]         1.5627              5.9045              6.6266

  ==> Thermochemistry Components <==

  Entropy, S
    Electronic S            0.000 [cal/(mol K)]        0.000 [J/(mol K)]       0.00000000 [mEh/K] (multiplicity = 1)
    Translational S        37.403 [cal/(mol K)]      156.492 [J/(mol K)]       0.05960470 [mEh/K] (mol. weight = 45.9877 [u], P = 101325.00 [Pa])
    Rotational S           17.437 [cal/(mol K)]       72.954 [J/(mol K)]       0.02778685 [mEh/K] (symmetry no. = 2)
    Vibrational S           0.249 [cal/(mol K)]        1.041 [J/(mol K)]       0.00039647 [mEh/K]
  Total S                  55.088 [cal/(mol K)]      230.487 [J/(mol K)]       0.08778802 [mEh/K]
  Correction S              0.000 [cal/(mol K)]        0.000 [J/(mol K)]       0.00000000 [mEh/K]

  Constant volume heat capacity, Cv
    Electronic Cv           0.000 [cal/(mol K)]        0.000 [J/(mol K)]       0.00000000 [mEh/K]
    Translational Cv        2.981 [cal/(mol K)]       12.472 [J/(mol K)]       0.00475022 [mEh/K]
    Rotational Cv           2.981 [cal/(mol K)]       12.472 [J/(mol K)]       0.00475022 [mEh/K]
    Vibrational Cv          1.072 [cal/(mol K)]        4.486 [J/(mol K)]       0.00170844 [mEh/K]
  Total Cv                  7.034 [cal/(mol K)]       29.429 [J/(mol K)]       0.01120888 [mEh/K]
  Correction Cv             0.000 [cal/(mol K)]        0.000 [J/(mol K)]       0.00000000 [mEh/K]

  Constant pressure heat capacity, Cp
    Electronic Cp           0.000 [cal/(mol K)]        0.000 [J/(mol K)]       0.00000000 [mEh/K]
    Translational Cp        4.968 [cal/(mol K)]       20.786 [J/(mol K)]       0.00791703 [mEh/K]
    Rotational Cp           2.981 [cal/(mol K)]       12.472 [J/(mol K)]       0.00475022 [mEh/K]
    Vibrational Cp          1.072 [cal/(mol K)]        4.486 [J/(mol K)]       0.00170844 [mEh/K]
  Total Cp                  9.021 [cal/(mol K)]       37.743 [J/(mol K)]       0.01437569 [mEh/K]
  Correction Cp             0.000 [cal/(mol K)]        0.000 [J/(mol K)]       0.00000000 [mEh/K]

  ==> Thermochemistry Energy Analysis <==

  Raw electronic energy, E0
  Total E0, Electronic energy at well bottom at 0 [K]                 -437.45864328 [Eh]

  Zero-point energy, ZPE_vib = Sum_i nu_i / 2
    Electronic ZPE          0.000 [kcal/mol]        0.000 [kJ/mol]       0.00000000 [Eh]
    Translational ZPE       0.000 [kcal/mol]        0.000 [kJ/mol]       0.00000000 [Eh]
    Rotational ZPE          0.000 [kcal/mol]        0.000 [kJ/mol]       0.00000000 [Eh]
    Vibrational ZPE        15.569 [kcal/mol]       65.140 [kJ/mol]       0.02481070 [Eh]        5445.319 [cm^-1]
  Correction ZPE           15.569 [kcal/mol]       65.140 [kJ/mol]       0.02481070 [Eh]        5445.319 [cm^-1]
  Total ZPE, Electronic energy at 0 [K]                               -437.43383258 [Eh]

  Thermal Energy, E (includes ZPE)
    Electronic E            0.000 [kcal/mol]        0.000 [kJ/mol]       0.00000000 [Eh]
    Translational E         0.889 [kcal/mol]        3.718 [kJ/mol]       0.00141628 [Eh]
    Rotational E            0.889 [kcal/mol]        3.718 [kJ/mol]       0.00141628 [Eh]
    Vibrational E          15.631 [kcal/mol]       65.400 [kJ/mol]       0.02490951 [Eh]
  Correction E             17.408 [kcal/mol]       72.837 [kJ/mol]       0.02774207 [Eh]
  Total E, Electronic energy at  298.15 [K]                           -437.43090121 [Eh]

  Enthalpy, H_trans = E_trans + k_B * T
    Electronic H            0.000 [kcal/mol]        0.000 [kJ/mol]       0.00000000 [Eh]
    Translational H         1.481 [kcal/mol]        6.197 [kJ/mol]       0.00236046 [Eh]
    Rotational H            0.889 [kcal/mol]        3.718 [kJ/mol]       0.00141628 [Eh]
    Vibrational H          15.631 [kcal/mol]       65.400 [kJ/mol]       0.02490951 [Eh]
  Correction H             18.001 [kcal/mol]       75.316 [kJ/mol]       0.02868625 [Eh]
  Total H, Enthalpy at  298.15 [K]                                    -437.42995703 [Eh]

  Gibbs free energy, G = H - T * S
    Electronic G            0.000 [kcal/mol]        0.000 [kJ/mol]       0.00000000 [Eh]
    Translational G        -9.670 [kcal/mol]      -40.461 [kJ/mol]      -0.01541068 [Eh]
    Rotational G           -4.310 [kcal/mol]      -18.033 [kJ/mol]      -0.00686837 [Eh]
    Vibrational G          15.557 [kcal/mol]       65.090 [kJ/mol]       0.02479131 [Eh]
  Correction G              1.576 [kcal/mol]        6.596 [kJ/mol]       0.00251225 [Eh]
  Total G, Free enthalpy at  298.15 [K]                               -437.45613102 [Eh]

*** Psi4 exiting successfully. Buy a developer a beer!
