                               Psi4 1.3.2 release

  ==> Input File <==

--------------------------------------------------------------------------
memory 144 GB

molecule {
0 1
O 0.0000000000 0.0000000000 0.0000000000
H 0.0000000000 0.0000000000 0.9579000000
H 0.9289588892 0.0000000000 -0.2336831018
}

set dynamic_level 1
set basis aug-cc-pV(Q+d)Z

optimize("wB97M-V")
frequencies("wB97M-V")
--------------------------------------------------------------------------

    Molecular point group: c2v
  Charge       = 0
  Multiplicity = 1
  Basis Set: AUG-CC-PV(Q+D)Z
    Blend: AUG-CC-PV(Q+D)Z
  Basis Set: (AUG-CC-PV(Q+D)Z AUX)
    Blend: AUG-CC-PVQZ-JKFIT
  @DF-RKS Final Energy:   -76.43880598621926
    Total Energy =                        -76.4388059862192648
    Molecular point group: c2v
  Basis Set: AUG-CC-PV(Q+D)Z
    Blend: AUG-CC-PV(Q+D)Z
  Basis Set: (AUG-CC-PV(Q+D)Z AUX)
    Blend: AUG-CC-PVQZ-JKFIT
  @DF-RKS Final Energy:   -76.43880188116718
    Total Energy =                        -76.4388018811671799
  Basis Set: AUG-CC-PV(Q+D)Z
    Blend: AUG-CC-PV(Q+D)Z
  Basis Set: (AUG-CC-PV(Q+D)Z AUX)
    Blend: AUG-CC-PVQZ-JKFIT
  @DF-RKS Final Energy:   -76.43880359805074
    Total Energy =                        -76.4388035980507254
  Basis Set: AUG-CC-PV(Q+D)Z
    Blend: AUG-CC-PV(Q+D)Z
  Basis Set: (AUG-CC-PV(Q+D)Z AUX)
    Blend: AUG-CC-PVQZ-JKFIT
  @DF-RKS Final Energy:   -76.43878720265080
    Total Energy =                        -76.4387872026507864
  @DF-RKS Final Energy:   -76.43881464534296
    Total Energy =                        -76.4388146453429584
  @DF-RKS Final Energy:   -76.43882469041155
    Total Energy =                        -76.4388246904115505
  @DF-RKS Final Energy:   -76.43882017661605
    Total Energy =                        -76.4388201766160620
  @DF-RKS Final Energy:   -76.43882282840099
    Total Energy =                        -76.4388228284009870
  @DF-RKS Final Energy:   -76.43882216623281
    Total Energy =                        -76.4388221662328107
  @DF-RKS Final Energy:   -76.43881714320923
    Total Energy =                        -76.4388171432092349
  @DF-RKS Final Energy:   -76.43882500332823
    Total Energy =                        -76.4388250033282333
  @DF-RKS Final Energy:   -76.43882161913071
    Total Energy =                        -76.4388216191307066
  @DF-RKS Final Energy:   -76.43882199546182
    Total Energy =                        -76.4388219954618222
  @DF-RKS Final Energy:   -76.43882012480377
    Total Energy =                        -76.4388201248037689
  @DF-RKS Final Energy:   -76.43881979497870
    Total Energy =                        -76.4388197949786985
  **** Optimization is complete! (in 3 steps) ****
    Final optimized geometry and variables:
  @DF-RKS Final Energy:   -76.43882500332840
    Total Energy =                        -76.4388250033283896
  @DF-RKS Final Energy:   -76.43882161913051
    Total Energy =                        -76.4388216191305077
  @DF-RKS Final Energy:   -76.43882199546155
    Total Energy =                        -76.4388219954615380
  @DF-RKS Final Energy:   -76.43882012480360
    Total Energy =                        -76.4388201248036268
  @DF-RKS Final Energy:   -76.43881979497839
    Total Energy =                        -76.4388197949783859
  @DF-RKS Final Energy:   -76.43882500332897
    Total Energy =                        -76.4388250033289722
  @DF-RKS Final Energy:   -76.43882161913126
    Total Energy =                        -76.4388216191312608
  @DF-RKS Final Energy:   -76.43882199546235
    Total Energy =                        -76.4388219954623338
  @DF-RKS Final Energy:   -76.43882012480438
    Total Energy =                        -76.4388201248043657
  Basis Set: AUG-CC-PV(Q+D)Z
    Blend: AUG-CC-PV(Q+D)Z
  Basis Set: (AUG-CC-PV(Q+D)Z AUX)
    Blend: AUG-CC-PVQZ-JKFIT
  @DF-RKS Final Energy:   -76.43881979497918
    Total Energy =                        -76.4388197949791959
  Basis Set: AUG-CC-PV(Q+D)Z
    Blend: AUG-CC-PV(Q+D)Z
  Basis Set: (AUG-CC-PV(Q+D)Z AUX)
    Blend: AUG-CC-PVQZ-JKFIT
  @DF-RKS Final Energy:   -76.43882219115699
    Total Energy =                        -76.4388221911569730
  Multiplicity = 1
  Basis Set: AUG-CC-PV(Q+D)Z
    Blend: AUG-CC-PV(Q+D)Z
  Basis Set: (AUG-CC-PV(Q+D)Z AUX)
    Blend: AUG-CC-PVQZ-JKFIT
  @DF-RKS Final Energy:   -76.43882216903378
    Total Energy =                        -76.4388221690337843
    Molecular point group: cs

    Geometry (in Angstrom), charge = 0, multiplicity = 1:

       Center              X                  Y                   Z               Mass
    ------------   -----------------  -----------------  -----------------  -----------------
         O            0.000000000000    -0.000179249284    -0.065397005238    15.994914619570
         H            0.000000000000     0.761776829174     0.520042111264     1.007825032230
         H            0.000000000000    -0.758932012966     0.517855819133     1.007825032230

  Charge       = 0
  Multiplicity = 1
  Basis Set: AUG-CC-PV(Q+D)Z
    Blend: AUG-CC-PV(Q+D)Z
  Basis Set: (AUG-CC-PV(Q+D)Z AUX)
    Blend: AUG-CC-PVQZ-JKFIT

    Orbital Energies [Eh]
    ---------------------

    Doubly Occupied:

       1Ap   -19.336339     2Ap    -1.143889     3Ap    -0.643098
       4Ap    -0.503360     1App   -0.428072

  @DF-RKS Final Energy:   -76.43881765039765

   => Energetics <=

    Nuclear Repulsion Energy =              9.1772263956251123
    One-Electron Energy =                -122.9768921508864992
    Two-Electron Energy =                  43.9763953746313661
    DFT Exchange-Correlation Energy =      -6.6581134504423378
    Empirical Dispersion Energy =           0.0000000000000000
    VV10 Nonlocal Energy =                  0.0425661806747037
    Total Energy =                        -76.4388176503976666

  Dipole Moment: [D]
     X:     0.0000      Y:     0.0033      Z:     1.8532     Total:     1.8532

  Vibration                       7                   8                   9
  Freq [cm^-1]                1631.0297           3841.5781           3942.5710
  Irrep                           A1                  A1                  B2
  Reduced mass [u]              1.0829              1.0449              1.0823
  Force const [mDyne/A]         1.6974              9.0856              9.9116

  ==> Thermochemistry Components <==

  Entropy, S
    Electronic S            0.000 [cal/(mol K)]        0.000 [J/(mol K)]       0.00000000 [mEh/K] (multiplicity = 1)
    Translational S        34.608 [cal/(mol K)]      144.801 [J/(mol K)]       0.05515177 [mEh/K] (mol. weight = 18.0106 [u], P = 101325.00 [Pa])
    Rotational S           10.454 [cal/(mol K)]       43.738 [J/(mol K)]       0.01665876 [mEh/K] (symmetry no. = 2)
    Vibrational S           0.007 [cal/(mol K)]        0.028 [J/(mol K)]       0.00001073 [mEh/K]
  Total S                  45.069 [cal/(mol K)]      188.567 [J/(mol K)]       0.07182126 [mEh/K]
  Correction S              0.000 [cal/(mol K)]        0.000 [J/(mol K)]       0.00000000 [mEh/K]

  Constant volume heat capacity, Cv
    Electronic Cv           0.000 [cal/(mol K)]        0.000 [J/(mol K)]       0.00000000 [mEh/K]
    Translational Cv        2.981 [cal/(mol K)]       12.472 [J/(mol K)]       0.00475022 [mEh/K]
    Rotational Cv           2.981 [cal/(mol K)]       12.472 [J/(mol K)]       0.00475022 [mEh/K]
    Vibrational Cv          0.047 [cal/(mol K)]        0.197 [J/(mol K)]       0.00007496 [mEh/K]
  Total Cv                  6.009 [cal/(mol K)]       25.140 [J/(mol K)]       0.00957539 [mEh/K]
  Correction Cv             0.000 [cal/(mol K)]        0.000 [J/(mol K)]       0.00000000 [mEh/K]

  Constant pressure heat capacity, Cp
    Electronic Cp           0.000 [cal/(mol K)]        0.000 [J/(mol K)]       0.00000000 [mEh/K]
    Translational Cp        4.968 [cal/(mol K)]       20.786 [J/(mol K)]       0.00791703 [mEh/K]
    Rotational Cp           2.981 [cal/(mol K)]       12.472 [J/(mol K)]       0.00475022 [mEh/K]
    Vibrational Cp          0.047 [cal/(mol K)]        0.197 [J/(mol K)]       0.00007496 [mEh/K]
  Total Cp                  7.996 [cal/(mol K)]       33.455 [J/(mol K)]       0.01274220 [mEh/K]
  Correction Cp             0.000 [cal/(mol K)]        0.000 [J/(mol K)]       0.00000000 [mEh/K]

  ==> Thermochemistry Energy Analysis <==

  Raw electronic energy, E0
  Total E0, Electronic energy at well bottom at 0 [K]                  -76.43882500 [Eh]

  Zero-point energy, ZPE_vib = Sum_i nu_i / 2
    Electronic ZPE          0.000 [kcal/mol]        0.000 [kJ/mol]       0.00000000 [Eh]
    Translational ZPE       0.000 [kcal/mol]        0.000 [kJ/mol]       0.00000000 [Eh]
    Rotational ZPE          0.000 [kcal/mol]        0.000 [kJ/mol]       0.00000000 [Eh]
    Vibrational ZPE        13.460 [kcal/mol]       56.315 [kJ/mol]       0.02144936 [Eh]        4707.589 [cm^-1]
  Correction ZPE           13.460 [kcal/mol]       56.315 [kJ/mol]       0.02144936 [Eh]        4707.589 [cm^-1]
  Total ZPE, Electronic energy at 0 [K]                                -76.41737565 [Eh]

  Thermal Energy, E (includes ZPE)
    Electronic E            0.000 [kcal/mol]        0.000 [kJ/mol]       0.00000000 [Eh]
    Translational E         0.889 [kcal/mol]        3.718 [kJ/mol]       0.00141628 [Eh]
    Rotational E            0.889 [kcal/mol]        3.718 [kJ/mol]       0.00141628 [Eh]
    Vibrational E          13.461 [kcal/mol]       56.323 [kJ/mol]       0.02145219 [Eh]
  Correction E             15.239 [kcal/mol]       63.760 [kJ/mol]       0.02428475 [Eh]
  Total E, Electronic energy at  298.15 [K]                            -76.41454026 [Eh]

  Enthalpy, H_trans = E_trans + k_B * T
    Electronic H            0.000 [kcal/mol]        0.000 [kJ/mol]       0.00000000 [Eh]
    Translational H         1.481 [kcal/mol]        6.197 [kJ/mol]       0.00236046 [Eh]
    Rotational H            0.889 [kcal/mol]        3.718 [kJ/mol]       0.00141628 [Eh]
    Vibrational H          13.461 [kcal/mol]       56.323 [kJ/mol]       0.02145219 [Eh]
  Correction H             15.831 [kcal/mol]       66.239 [kJ/mol]       0.02522893 [Eh]
  Total H, Enthalpy at  298.15 [K]                                     -76.41359607 [Eh]

  Gibbs free energy, G = H - T * S
    Electronic G            0.000 [kcal/mol]        0.000 [kJ/mol]       0.00000000 [Eh]
    Translational G        -8.837 [kcal/mol]      -36.975 [kJ/mol]      -0.01408304 [Eh]
    Rotational G           -2.228 [kcal/mol]       -9.322 [kJ/mol]      -0.00355053 [Eh]
    Vibrational G          13.459 [kcal/mol]       56.314 [kJ/mol]       0.02144899 [Eh]
  Correction G              2.394 [kcal/mol]       10.017 [kJ/mol]       0.00381542 [Eh]
  Total G, Free enthalpy at  298.15 [K]                                -76.43500958 [Eh]

*** Psi4 exiting successfully. Buy a developer a beer!
