                               Psi4 1.3.2 release

  ==> Input File <==

--------------------------------------------------------------------------
memory 144 GB

molecule {
0 1
S 0.0000000000 0.0000000000 0.0000000000
H 0.0000000000 0.0000000000 1.3377284100
H 1.3366219004 0.0000000000 -0.0543984776
}

set dynamic_level 1
set basis aug-cc-pV(Q+d)Z

optimize("wB97M-V")
frequencies("wB97M-V")
--------------------------------------------------------------------------

    Molecular point group: c2v
  Charge       = 0
  Multiplicity = 1
  Basis Set: AUG-CC-PV(Q+D)Z
    Blend: AUG-CC-PV(Q+D)Z
  Basis Set: (AUG-CC-PV(Q+D)Z AUX)
    Blend: AUG-CC-PVQZ-JKFIT
  @DF-RKS Final Energy:  -399.38531826859492
    Total Energy =                       -399.3853182685949719
    Molecular point group: c2v
  Basis Set: AUG-CC-PV(Q+D)Z
    Blend: AUG-CC-PV(Q+D)Z
  Basis Set: (AUG-CC-PV(Q+D)Z AUX)
    Blend: AUG-CC-PVQZ-JKFIT
  @DF-RKS Final Energy:  -399.38531457512698
    Total Energy =                       -399.3853145751269835
  Basis Set: AUG-CC-PV(Q+D)Z
    Blend: AUG-CC-PV(Q+D)Z
  Basis Set: (AUG-CC-PV(Q+D)Z AUX)
    Blend: AUG-CC-PVQZ-JKFIT
  @DF-RKS Final Energy:  -399.38531792851427
    Total Energy =                       -399.3853179285142687
  Basis Set: AUG-CC-PV(Q+D)Z
    Blend: AUG-CC-PV(Q+D)Z
  Basis Set: (AUG-CC-PV(Q+D)Z AUX)
    Blend: AUG-CC-PVQZ-JKFIT
  @DF-RKS Final Energy:  -399.38531816413058
    Total Energy =                       -399.3853181641306378
  @DF-RKS Final Energy:  -399.38531400835603
    Total Energy =                       -399.3853140083559765
  @DF-RKS Final Energy:  -399.38531879162105
    Total Energy =                       -399.3853187916209890
  @DF-RKS Final Energy:  -399.38531678889899
    Total Energy =                       -399.3853167888989901
  @DF-RKS Final Energy:  -399.38531672987534
    Total Energy =                       -399.3853167298753419
  @DF-RKS Final Energy:  -399.38531643468866
    Total Energy =                       -399.3853164346886047
  @DF-RKS Final Energy:  -399.38531675606106
    Total Energy =                       -399.3853167560610586
  **** Optimization is complete! (in 2 steps) ****
    Final optimized geometry and variables:
  @DF-RKS Final Energy:  -399.38531879131557
    Total Energy =                       -399.3853187913155693
  @DF-RKS Final Energy:  -399.38531678943997
    Total Energy =                       -399.3853167894399689
  @DF-RKS Final Energy:  -399.38531672964405
    Total Energy =                       -399.3853167296440461
  @DF-RKS Final Energy:  -399.38531643427586
    Total Energy =                       -399.3853164342759214
  @DF-RKS Final Energy:  -399.38531675588200
    Total Energy =                       -399.3853167558820019
  @DF-RKS Final Energy:  -399.38531879131710
    Total Energy =                       -399.3853187913171041
  @DF-RKS Final Energy:  -399.38531678944037
    Total Energy =                       -399.3853167894403668
  @DF-RKS Final Energy:  -399.38531672964479
    Total Energy =                       -399.3853167296447850
  @DF-RKS Final Energy:  -399.38531643427723
    Total Energy =                       -399.3853164342772288
  Basis Set: AUG-CC-PV(Q+D)Z
    Blend: AUG-CC-PV(Q+D)Z
  Basis Set: (AUG-CC-PV(Q+D)Z AUX)
    Blend: AUG-CC-PVQZ-JKFIT
  @DF-RKS Final Energy:  -399.38531675588234
    Total Energy =                       -399.3853167558823429
  Basis Set: AUG-CC-PV(Q+D)Z
    Blend: AUG-CC-PV(Q+D)Z
  Basis Set: (AUG-CC-PV(Q+D)Z AUX)
    Blend: AUG-CC-PVQZ-JKFIT
  @DF-RKS Final Energy:  -399.38531752600562
    Total Energy =                       -399.3853175260056219
  Multiplicity = 1
  Basis Set: AUG-CC-PV(Q+D)Z
    Blend: AUG-CC-PV(Q+D)Z
  Basis Set: (AUG-CC-PV(Q+D)Z AUX)
    Blend: AUG-CC-PVQZ-JKFIT
  @DF-RKS Final Energy:  -399.38531727305644
    Total Energy =                       -399.3853172730565007
    Molecular point group: cs

    Geometry (in Angstrom), charge = 0, multiplicity = 1:

       Center              X                  Y                   Z               Mass
    ------------   -----------------  -----------------  -----------------  -----------------
         S            0.000000000000    -0.000083371753    -0.054932001603    31.972071174400
         H            0.000000000000     0.965469304494     0.872597240356     1.007825032230
         H            0.000000000000    -0.962824433071     0.870056304487     1.007825032230

  Charge       = 0
  Multiplicity = 1
  Basis Set: AUG-CC-PV(Q+D)Z
    Blend: AUG-CC-PV(Q+D)Z
  Basis Set: (AUG-CC-PV(Q+D)Z AUX)
    Blend: AUG-CC-PVQZ-JKFIT

    Orbital Energies [Eh]
    ---------------------

    Doubly Occupied:

       1Ap   -89.210974     2Ap    -8.126712     3Ap    -6.036998
       4Ap    -6.034254     1App   -6.029056     5Ap    -0.863204
       6Ap    -0.543427     7Ap    -0.466862     2App   -0.361153

  @DF-RKS Final Energy:  -399.38531526993722

   => Energetics <=

    Nuclear Repulsion Energy =             12.9399982250915624
    One-Electron Energy =                -576.7217737662784884
    Two-Electron Energy =                 184.4789284865711636
    DFT Exchange-Correlation Energy =     -20.1581994813212333
    Empirical Dispersion Energy =           0.0000000000000000
    VV10 Nonlocal Energy =                  0.0757312659997826
    Total Energy =                       -399.3853152699372231

  Dipole Moment: [D]
     X:     0.0000      Y:     0.0001      Z:     0.9752     Total:     0.9752

  Vibration                       7                   8                   9
  Freq [cm^-1]                1210.8098           2728.3854           2733.4638
  Irrep                           A1                  B2                  A1
  Reduced mass [u]              1.0394              1.0398              1.0359
  Force const [mDyne/A]         0.8978              4.5605              4.5601

  ==> Thermochemistry Components <==

  Entropy, S
    Electronic S            0.000 [cal/(mol K)]        0.000 [J/(mol K)]       0.00000000 [mEh/K] (multiplicity = 1)
    Translational S        36.501 [cal/(mol K)]      152.721 [J/(mol K)]       0.05816835 [mEh/K] (mol. weight = 33.9877 [u], P = 101325.00 [Pa])
    Rotational S           12.572 [cal/(mol K)]       52.601 [J/(mol K)]       0.02003460 [mEh/K] (symmetry no. = 2)
    Vibrational S           0.040 [cal/(mol K)]        0.166 [J/(mol K)]       0.00006319 [mEh/K]
  Total S                  49.113 [cal/(mol K)]      205.488 [J/(mol K)]       0.07826614 [mEh/K]
  Correction S              0.000 [cal/(mol K)]        0.000 [J/(mol K)]       0.00000000 [mEh/K]

  Constant volume heat capacity, Cv
    Electronic Cv           0.000 [cal/(mol K)]        0.000 [J/(mol K)]       0.00000000 [mEh/K]
    Translational Cv        2.981 [cal/(mol K)]       12.472 [J/(mol K)]       0.00475022 [mEh/K]
    Rotational Cv           2.981 [cal/(mol K)]       12.472 [J/(mol K)]       0.00475022 [mEh/K]
    Vibrational Cv          0.199 [cal/(mol K)]        0.833 [J/(mol K)]       0.00031746 [mEh/K]
  Total Cv                  6.161 [cal/(mol K)]       25.777 [J/(mol K)]       0.00981789 [mEh/K]
  Correction Cv             0.000 [cal/(mol K)]        0.000 [J/(mol K)]       0.00000000 [mEh/K]

  Constant pressure heat capacity, Cp
    Electronic Cp           0.000 [cal/(mol K)]        0.000 [J/(mol K)]       0.00000000 [mEh/K]
    Translational Cp        4.968 [cal/(mol K)]       20.786 [J/(mol K)]       0.00791703 [mEh/K]
    Rotational Cp           2.981 [cal/(mol K)]       12.472 [J/(mol K)]       0.00475022 [mEh/K]
    Vibrational Cp          0.199 [cal/(mol K)]        0.833 [J/(mol K)]       0.00031746 [mEh/K]
  Total Cp                  8.148 [cal/(mol K)]       34.091 [J/(mol K)]       0.01298470 [mEh/K]
  Correction Cp             0.000 [cal/(mol K)]        0.000 [J/(mol K)]       0.00000000 [mEh/K]

  ==> Thermochemistry Energy Analysis <==

  Raw electronic energy, E0
  Total E0, Electronic energy at well bottom at 0 [K]                 -399.38531879 [Eh]

  Zero-point energy, ZPE_vib = Sum_i nu_i / 2
    Electronic ZPE          0.000 [kcal/mol]        0.000 [kJ/mol]       0.00000000 [Eh]
    Translational ZPE       0.000 [kcal/mol]        0.000 [kJ/mol]       0.00000000 [Eh]
    Rotational ZPE          0.000 [kcal/mol]        0.000 [kJ/mol]       0.00000000 [Eh]
    Vibrational ZPE         9.539 [kcal/mol]       39.911 [kJ/mol]       0.01520144 [Eh]        3336.329 [cm^-1]
  Correction ZPE            9.539 [kcal/mol]       39.911 [kJ/mol]       0.01520144 [Eh]        3336.329 [cm^-1]
  Total ZPE, Electronic energy at 0 [K]                               -399.37011736 [Eh]

  Thermal Energy, E (includes ZPE)
    Electronic E            0.000 [kcal/mol]        0.000 [kJ/mol]       0.00000000 [Eh]
    Translational E         0.889 [kcal/mol]        3.718 [kJ/mol]       0.00141628 [Eh]
    Rotational E            0.889 [kcal/mol]        3.718 [kJ/mol]       0.00141628 [Eh]
    Vibrational E           9.549 [kcal/mol]       39.954 [kJ/mol]       0.01521753 [Eh]
  Correction E             11.327 [kcal/mol]       47.390 [kJ/mol]       0.01805008 [Eh]
  Total E, Electronic energy at  298.15 [K]                           -399.36726871 [Eh]

  Enthalpy, H_trans = E_trans + k_B * T
    Electronic H            0.000 [kcal/mol]        0.000 [kJ/mol]       0.00000000 [Eh]
    Translational H         1.481 [kcal/mol]        6.197 [kJ/mol]       0.00236046 [Eh]
    Rotational H            0.889 [kcal/mol]        3.718 [kJ/mol]       0.00141628 [Eh]
    Vibrational H           9.549 [kcal/mol]       39.954 [kJ/mol]       0.01521753 [Eh]
  Correction H             11.919 [kcal/mol]       49.869 [kJ/mol]       0.01899427 [Eh]
  Total H, Enthalpy at  298.15 [K]                                    -399.36632452 [Eh]

  Gibbs free energy, G = H - T * S
    Electronic G            0.000 [kcal/mol]        0.000 [kJ/mol]       0.00000000 [Eh]
    Translational G        -9.402 [kcal/mol]      -39.336 [kJ/mol]      -0.01498243 [Eh]
    Rotational G           -2.860 [kcal/mol]      -11.965 [kJ/mol]      -0.00455704 [Eh]
    Vibrational G           9.537 [kcal/mol]       39.904 [kJ/mol]       0.01519869 [Eh]
  Correction G             -2.724 [kcal/mol]      -11.397 [kJ/mol]      -0.00434078 [Eh]
  Total G, Free enthalpy at  298.15 [K]                               -399.38965957 [Eh]

*** Psi4 exiting successfully. Buy a developer a beer!
