                               Psi4 1.3.2 release

  ==> Input File <==

--------------------------------------------------------------------------
memory 144 GB

molecule {
0 1
H 0.0000000000 0.0000000000 0.0000000000
C 0.0000000000 0.0000000000 1.0668000000
N 0.0000000000 0.0000000000 2.2232000000
}

set dynamic_level 1
set basis aug-cc-pV(Q+d)Z

optimize("wB97M-V")
frequencies("wB97M-V")
--------------------------------------------------------------------------

    Molecular point group: c2v
  Charge       = 0
  Multiplicity = 1
  Basis Set: AUG-CC-PV(Q+D)Z
    Blend: AUG-CC-PV(Q+D)Z
  Basis Set: (AUG-CC-PV(Q+D)Z AUX)
    Blend: AUG-CC-PVQZ-JKFIT
  @DF-RKS Final Energy:   -93.43617702989357
    Total Energy =                        -93.4361770298935710
    Molecular point group: c2v
  Basis Set: AUG-CC-PV(Q+D)Z
    Blend: AUG-CC-PV(Q+D)Z
  Basis Set: (AUG-CC-PV(Q+D)Z AUX)
    Blend: AUG-CC-PVQZ-JKFIT
  @DF-RKS Final Energy:   -93.43616716381328
    Total Energy =                        -93.4361671638132805
  Basis Set: AUG-CC-PV(Q+D)Z
    Blend: AUG-CC-PV(Q+D)Z
  Basis Set: (AUG-CC-PV(Q+D)Z AUX)
    Blend: AUG-CC-PVQZ-JKFIT
  @DF-RKS Final Energy:   -93.43617661744601
    Total Energy =                        -93.4361766174460087
  Basis Set: AUG-CC-PV(Q+D)Z
    Blend: AUG-CC-PV(Q+D)Z
  Basis Set: (AUG-CC-PV(Q+D)Z AUX)
    Blend: AUG-CC-PVQZ-JKFIT
  @DF-RKS Final Energy:   -93.43611435206809
    Total Energy =                        -93.4361143520680884
  @DF-RKS Final Energy:   -93.43623447105512
    Total Energy =                        -93.4362344710551014
  @DF-RKS Final Energy:   -93.43656145714962
    Total Energy =                        -93.4365614571496081
  @DF-RKS Final Energy:   -93.43655509517845
    Total Energy =                        -93.4365550951784485
  @DF-RKS Final Energy:   -93.43655746475352
    Total Energy =                        -93.4365574647535198
  @DF-RKS Final Energy:   -93.43655752322239
    Total Energy =                        -93.4365575232223904
  @DF-RKS Final Energy:   -93.43655975691100
    Total Energy =                        -93.4365597569110093
  @DF-RKS Final Energy:   -93.43656171398381
    Total Energy =                        -93.4365617139838065
  @DF-RKS Final Energy:   -93.43655660380958
    Total Energy =                        -93.4365566038095778
  @DF-RKS Final Energy:   -93.43655644239654
    Total Energy =                        -93.4365564423965367
  @DF-RKS Final Energy:   -93.43655893150205
    Total Energy =                        -93.4365589315020486
  @DF-RKS Final Energy:   -93.43655885370983
    Total Energy =                        -93.4365588537098404
  **** Optimization is complete! (in 3 steps) ****
    Final optimized geometry and variables:
  @DF-RKS Final Energy:   -93.43656171398352
    Total Energy =                        -93.4365617139835223
  @DF-RKS Final Energy:   -93.43655660380954
    Total Energy =                        -93.4365566038095636
  @DF-RKS Final Energy:   -93.43655644239678
    Total Energy =                        -93.4365564423967783
  @DF-RKS Final Energy:   -93.43655893150201
    Total Energy =                        -93.4365589315019918
  @DF-RKS Final Energy:   -93.43655885370966
    Total Energy =                        -93.4365588537096698
  @DF-RKS Final Energy:   -93.43656171398402
    Total Energy =                        -93.4365617139840055
  @DF-RKS Final Energy:   -93.43655660381002
    Total Energy =                        -93.4365566038100326
  @DF-RKS Final Energy:   -93.43655644239705
    Total Energy =                        -93.4365564423970483
  @DF-RKS Final Energy:   -93.43655893150247
    Total Energy =                        -93.4365589315024749
  @DF-RKS Final Energy:   -93.43655885371034
    Total Energy =                        -93.4365588537103378
  Basis Set: AUG-CC-PV(Q+D)Z
    Blend: AUG-CC-PV(Q+D)Z
  Basis Set: (AUG-CC-PV(Q+D)Z AUX)
    Blend: AUG-CC-PVQZ-JKFIT
  @DF-RKS Final Energy:   -93.43655588577504
    Total Energy =                        -93.4365558857750358
  Basis Set: AUG-CC-PV(Q+D)Z
    Blend: AUG-CC-PV(Q+D)Z
  Basis Set: (AUG-CC-PV(Q+D)Z AUX)
    Blend: AUG-CC-PVQZ-JKFIT
  @DF-RKS Final Energy:   -93.43655610069983
    Total Energy =                        -93.4365561006998320
  Multiplicity = 1
  Basis Set: AUG-CC-PV(Q+D)Z
    Blend: AUG-CC-PV(Q+D)Z
  Basis Set: (AUG-CC-PV(Q+D)Z AUX)
    Blend: AUG-CC-PVQZ-JKFIT
  @DF-RKS Final Energy:   -93.43656144291873
    Total Energy =                        -93.4365614429187303
    Molecular point group: cs

    Geometry (in Angstrom), charge = 0, multiplicity = 1:

       Center              X                  Y                   Z               Mass
    ------------   -----------------  -----------------  -----------------  -----------------
         H            0.000000000000    -0.002247015167    -1.618231297289     1.007825032230
         C            0.000000000000     0.000364503765    -0.553074010408    12.000000000000
         N            0.000000000000    -0.000150641713     0.590426225815    14.003074004430

  Charge       = 0
  Multiplicity = 1
  Basis Set: AUG-CC-PV(Q+D)Z
    Blend: AUG-CC-PV(Q+D)Z
  Basis Set: (AUG-CC-PV(Q+D)Z AUX)
    Blend: AUG-CC-PVQZ-JKFIT

    Orbital Energies [Eh]
    ---------------------

    Doubly Occupied:

       1Ap   -14.528346     2Ap   -10.395385     3Ap    -1.054142
       4Ap    -0.720609     5Ap    -0.497672     1App   -0.472435
       6Ap    -0.472434

  @DF-RKS Final Energy:   -93.43656143802335

   => Energetics <=

    Nuclear Repulsion Energy =             24.0942993860958339
    One-Electron Energy =                -173.1646049446828215
    Two-Electron Energy =                  64.5486417406564925
    DFT Exchange-Correlation Energy =      -8.9732729824273960
    Empirical Dispersion Energy =           0.0000000000000000
    VV10 Nonlocal Energy =                  0.0583753623345388
    Total Energy =                        -93.4365614380233467

  Dipole Moment: [D]
     X:     0.0000      Y:    -0.0024      Z:    -3.0557     Total:     3.0557

  Vibration                       6                   7                   8
  Freq [cm^-1]                 756.9832            763.7881           2232.6437
  Irrep                           B1                  B2                  A1
  Reduced mass [u]              1.3451              1.3451              4.9806
  Force const [mDyne/A]         0.4541              0.4623             14.6274

  Vibration                       9
  Freq [cm^-1]                3457.3060
  Irrep                           A1
  Reduced mass [u]              1.1974
  Force const [mDyne/A]         8.4328

  ==> Thermochemistry Components <==

  Entropy, S
    Electronic S            0.000 [cal/(mol K)]        0.000 [J/(mol K)]       0.00000000 [mEh/K] (multiplicity = 1)
    Translational S        35.816 [cal/(mol K)]      149.856 [J/(mol K)]       0.05707695 [mEh/K] (mol. weight = 27.0109 [u], P = 101325.00 [Pa])
    Rotational S           11.772 [cal/(mol K)]       49.256 [J/(mol K)]       0.01876064 [mEh/K] (symmetry no. = 1)
    Vibrational S           0.485 [cal/(mol K)]        2.028 [J/(mol K)]       0.00077235 [mEh/K]
  Total S                  48.073 [cal/(mol K)]      201.139 [J/(mol K)]       0.07660994 [mEh/K]
  Correction S              0.000 [cal/(mol K)]        0.000 [J/(mol K)]       0.00000000 [mEh/K]

  Constant volume heat capacity, Cv
    Electronic Cv           0.000 [cal/(mol K)]        0.000 [J/(mol K)]       0.00000000 [mEh/K]
    Translational Cv        2.981 [cal/(mol K)]       12.472 [J/(mol K)]       0.00475022 [mEh/K]
    Rotational Cv           1.987 [cal/(mol K)]        8.314 [J/(mol K)]       0.00316681 [mEh/K]
    Vibrational Cv          1.441 [cal/(mol K)]        6.031 [J/(mol K)]       0.00229695 [mEh/K]
  Total Cv                  6.409 [cal/(mol K)]       26.817 [J/(mol K)]       0.01021398 [mEh/K]
  Correction Cv             0.000 [cal/(mol K)]        0.000 [J/(mol K)]       0.00000000 [mEh/K]

  Constant pressure heat capacity, Cp
    Electronic Cp           0.000 [cal/(mol K)]        0.000 [J/(mol K)]       0.00000000 [mEh/K]
    Translational Cp        4.968 [cal/(mol K)]       20.786 [J/(mol K)]       0.00791703 [mEh/K]
    Rotational Cp           1.987 [cal/(mol K)]        8.314 [J/(mol K)]       0.00316681 [mEh/K]
    Vibrational Cp          1.441 [cal/(mol K)]        6.031 [J/(mol K)]       0.00229695 [mEh/K]
  Total Cp                  8.397 [cal/(mol K)]       35.131 [J/(mol K)]       0.01338079 [mEh/K]
  Correction Cp             0.000 [cal/(mol K)]        0.000 [J/(mol K)]       0.00000000 [mEh/K]

  ==> Thermochemistry Energy Analysis <==

  Raw electronic energy, E0
  Total E0, Electronic energy at well bottom at 0 [K]                  -93.43656171 [Eh]

  Zero-point energy, ZPE_vib = Sum_i nu_i / 2
    Electronic ZPE          0.000 [kcal/mol]        0.000 [kJ/mol]       0.00000000 [Eh]
    Translational ZPE       0.000 [kcal/mol]        0.000 [kJ/mol]       0.00000000 [Eh]
    Rotational ZPE          0.000 [kcal/mol]        0.000 [kJ/mol]       0.00000000 [Eh]
    Vibrational ZPE        10.308 [kcal/mol]       43.130 [kJ/mol]       0.01642723 [Eh]        3605.360 [cm^-1]
  Correction ZPE           10.308 [kcal/mol]       43.130 [kJ/mol]       0.01642723 [Eh]        3605.360 [cm^-1]
  Total ZPE, Electronic energy at 0 [K]                                -93.42013448 [Eh]

  Thermal Energy, E (includes ZPE)
    Electronic E            0.000 [kcal/mol]        0.000 [kJ/mol]       0.00000000 [Eh]
    Translational E         0.889 [kcal/mol]        3.718 [kJ/mol]       0.00141628 [Eh]
    Rotational E            0.592 [kcal/mol]        2.479 [kJ/mol]       0.00094418 [Eh]
    Vibrational E          10.422 [kcal/mol]       43.606 [kJ/mol]       0.01660872 [Eh]
  Correction E             11.903 [kcal/mol]       49.804 [kJ/mol]       0.01896918 [Eh]
  Total E, Electronic energy at  298.15 [K]                            -93.41759253 [Eh]

  Enthalpy, H_trans = E_trans + k_B * T
    Electronic H            0.000 [kcal/mol]        0.000 [kJ/mol]       0.00000000 [Eh]
    Translational H         1.481 [kcal/mol]        6.197 [kJ/mol]       0.00236046 [Eh]
    Rotational H            0.592 [kcal/mol]        2.479 [kJ/mol]       0.00094418 [Eh]
    Vibrational H          10.422 [kcal/mol]       43.606 [kJ/mol]       0.01660872 [Eh]
  Correction H             12.496 [kcal/mol]       52.283 [kJ/mol]       0.01991336 [Eh]
  Total H, Enthalpy at  298.15 [K]                                     -93.41664835 [Eh]

  Gibbs free energy, G = H - T * S
    Electronic G            0.000 [kcal/mol]        0.000 [kJ/mol]       0.00000000 [Eh]
    Translational G        -9.197 [kcal/mol]      -38.482 [kJ/mol]      -0.01465703 [Eh]
    Rotational G           -2.917 [kcal/mol]      -12.207 [kJ/mol]      -0.00464930 [Eh]
    Vibrational G          10.278 [kcal/mol]       43.002 [kJ/mol]       0.01637844 [Eh]
  Correction G             -1.837 [kcal/mol]       -7.687 [kJ/mol]      -0.00292789 [Eh]
  Total G, Free enthalpy at  298.15 [K]                                -93.43948960 [Eh]

*** Psi4 exiting successfully. Buy a developer a beer!
