                               Psi4 1.3.2 release

  ==> Input File <==

--------------------------------------------------------------------------
memory 144 GB

molecule {
0 1
F 0.0000000000 0.0000000000 0.0000000000
H 0.0000000000 0.0000000000 0.9157690000
}

set dynamic_level 1
set basis aug-cc-pV(Q+d)Z

optimize("wB97M-V")
frequencies("wB97M-V")
--------------------------------------------------------------------------

    Molecular point group: c2v
  Charge       = 0
  Multiplicity = 1
  Basis Set: AUG-CC-PV(Q+D)Z
    Blend: AUG-CC-PV(Q+D)Z
  Basis Set: (AUG-CC-PV(Q+D)Z AUX)
    Blend: AUG-CC-PVQZ-JKFIT
  @DF-RKS Final Energy:  -100.46601508040339
    Total Energy =                       -100.4660150804033947
    Molecular point group: c2v
  Basis Set: AUG-CC-PV(Q+D)Z
    Blend: AUG-CC-PV(Q+D)Z
  Basis Set: (AUG-CC-PV(Q+D)Z AUX)
    Blend: AUG-CC-PVQZ-JKFIT
  @DF-RKS Final Energy:  -100.46603440533556
    Total Energy =                       -100.4660344053355630
  Basis Set: AUG-CC-PV(Q+D)Z
    Blend: AUG-CC-PV(Q+D)Z
  Basis Set: (AUG-CC-PV(Q+D)Z AUX)
    Blend: AUG-CC-PVQZ-JKFIT
  @DF-RKS Final Energy:  -100.46597922788058
    Total Energy =                       -100.4659792278805810
  Basis Set: AUG-CC-PV(Q+D)Z
    Blend: AUG-CC-PV(Q+D)Z
  Basis Set: (AUG-CC-PV(Q+D)Z AUX)
    Blend: AUG-CC-PVQZ-JKFIT
  @DF-RKS Final Energy:  -100.46603819242387
    Total Energy =                       -100.4660381924238663
  @DF-RKS Final Energy:  -100.46603180243399
    Total Energy =                       -100.4660318024340029
  @DF-RKS Final Energy:  -100.46602856057230
    Total Energy =                       -100.4660285605722834
  @DF-RKS Final Energy:  -100.46603826894365
    Total Energy =                       -100.4660382689436489
  @DF-RKS Final Energy:  -100.46603030082493
    Total Energy =                       -100.4660303008249258
  @DF-RKS Final Energy:  -100.46603024652669
    Total Energy =                       -100.4660302465266852
  **** Optimization is complete! (in 3 steps) ****
    Final optimized geometry and variables:
  @DF-RKS Final Energy:  -100.46603826894382
    Total Energy =                       -100.4660382689438336
  @DF-RKS Final Energy:  -100.46603030082494
    Total Energy =                       -100.4660303008249400
  Basis Set: AUG-CC-PV(Q+D)Z
    Blend: AUG-CC-PV(Q+D)Z
  Basis Set: (AUG-CC-PV(Q+D)Z AUX)
    Blend: AUG-CC-PVQZ-JKFIT
  @DF-RKS Final Energy:  -100.46603024652669
    Total Energy =                       -100.4660302465266994
  Basis Set: AUG-CC-PV(Q+D)Z
    Blend: AUG-CC-PV(Q+D)Z
  Basis Set: (AUG-CC-PV(Q+D)Z AUX)
    Blend: AUG-CC-PVQZ-JKFIT
  @DF-RKS Final Energy:  -100.46603826894373
    Total Energy =                       -100.4660382689437483
  Multiplicity = 1
  Basis Set: AUG-CC-PV(Q+D)Z
    Blend: AUG-CC-PV(Q+D)Z
  Basis Set: (AUG-CC-PV(Q+D)Z AUX)
    Blend: AUG-CC-PVQZ-JKFIT
  @DF-RKS Final Energy:  -100.46603030082495
    Total Energy =                       -100.4660303008249400
    Molecular point group: c2v

    Geometry (in Angstrom), charge = 0, multiplicity = 1:

       Center              X                  Y                   Z               Mass
    ------------   -----------------  -----------------  -----------------  -----------------
         F            0.000000000000     0.000000000000    -0.046227096040    18.998403162730
         H            0.000000000000     0.000000000000     0.871422101577     1.007825032230

  Charge       = 0
  Multiplicity = 1
  Basis Set: AUG-CC-PV(Q+D)Z
    Blend: AUG-CC-PV(Q+D)Z
  Basis Set: (AUG-CC-PV(Q+D)Z AUX)
    Blend: AUG-CC-PVQZ-JKFIT

    Orbital Energies [Eh]
    ---------------------

    Doubly Occupied:

       1A1   -24.898861     2A1    -1.337978     3A1    -0.665709
       1B1    -0.531043     1B2    -0.531043

  @DF-RKS Final Energy:  -100.46603024652670

   => Energetics <=

    Nuclear Repulsion Energy =              5.1899951619834201
    One-Electron Energy =                -150.4380316790637835
    Two-Electron Energy =                  52.6502286461789666
    DFT Exchange-Correlation Energy =      -7.9116088758708845
    Empirical Dispersion Energy =           0.0000000000000000
    VV10 Nonlocal Energy =                  0.0433865002455640
    Total Energy =                       -100.4660302465267137

  Dipole Moment: [D]
     X:     0.0000      Y:     0.0000      Z:     1.7958     Total:     1.7958

  Vibration                       6
  Freq [cm^-1]                4111.1733
  Irrep                           A1
  Reduced mass [u]              1.0583
  Force const [mDyne/A]        10.5389

  ==> Thermochemistry Components <==

  Entropy, S
    Electronic S            0.000 [cal/(mol K)]        0.000 [J/(mol K)]       0.00000000 [mEh/K] (multiplicity = 1)
    Translational S        34.921 [cal/(mol K)]      146.112 [J/(mol K)]       0.05565095 [mEh/K] (mol. weight = 20.0062 [u], P = 101325.00 [Pa])
    Rotational S            6.556 [cal/(mol K)]       27.430 [J/(mol K)]       0.01044766 [mEh/K] (symmetry no. = 1)
    Vibrational S           0.000 [cal/(mol K)]        0.000 [J/(mol K)]       0.00000000 [mEh/K]
  Total S                  41.478 [cal/(mol K)]      173.542 [J/(mol K)]       0.06609861 [mEh/K]
  Correction S              0.000 [cal/(mol K)]        0.000 [J/(mol K)]       0.00000000 [mEh/K]

  Constant volume heat capacity, Cv
    Electronic Cv           0.000 [cal/(mol K)]        0.000 [J/(mol K)]       0.00000000 [mEh/K]
    Translational Cv        2.981 [cal/(mol K)]       12.472 [J/(mol K)]       0.00475022 [mEh/K]
    Rotational Cv           1.987 [cal/(mol K)]        8.314 [J/(mol K)]       0.00316681 [mEh/K]
    Vibrational Cv          0.000 [cal/(mol K)]        0.000 [J/(mol K)]       0.00000000 [mEh/K]
  Total Cv                  4.968 [cal/(mol K)]       20.786 [J/(mol K)]       0.00791703 [mEh/K]
  Correction Cv             0.000 [cal/(mol K)]        0.000 [J/(mol K)]       0.00000000 [mEh/K]

  Constant pressure heat capacity, Cp
    Electronic Cp           0.000 [cal/(mol K)]        0.000 [J/(mol K)]       0.00000000 [mEh/K]
    Translational Cp        4.968 [cal/(mol K)]       20.786 [J/(mol K)]       0.00791703 [mEh/K]
    Rotational Cp           1.987 [cal/(mol K)]        8.314 [J/(mol K)]       0.00316681 [mEh/K]
    Vibrational Cp          0.000 [cal/(mol K)]        0.000 [J/(mol K)]       0.00000000 [mEh/K]
  Total Cp                  6.955 [cal/(mol K)]       29.101 [J/(mol K)]       0.01108384 [mEh/K]
  Correction Cp             0.000 [cal/(mol K)]        0.000 [J/(mol K)]       0.00000000 [mEh/K]

  ==> Thermochemistry Energy Analysis <==

  Raw electronic energy, E0
  Total E0, Electronic energy at well bottom at 0 [K]                 -100.46603827 [Eh]

  Zero-point energy, ZPE_vib = Sum_i nu_i / 2
    Electronic ZPE          0.000 [kcal/mol]        0.000 [kJ/mol]       0.00000000 [Eh]
    Translational ZPE       0.000 [kcal/mol]        0.000 [kJ/mol]       0.00000000 [Eh]
    Rotational ZPE          0.000 [kcal/mol]        0.000 [kJ/mol]       0.00000000 [Eh]
    Vibrational ZPE         5.877 [kcal/mol]       24.590 [kJ/mol]       0.00936594 [Eh]        2055.587 [cm^-1]
  Correction ZPE            5.877 [kcal/mol]       24.590 [kJ/mol]       0.00936594 [Eh]        2055.587 [cm^-1]
  Total ZPE, Electronic energy at 0 [K]                               -100.45667233 [Eh]

  Thermal Energy, E (includes ZPE)
    Electronic E            0.000 [kcal/mol]        0.000 [kJ/mol]       0.00000000 [Eh]
    Translational E         0.889 [kcal/mol]        3.718 [kJ/mol]       0.00141628 [Eh]
    Rotational E            0.592 [kcal/mol]        2.479 [kJ/mol]       0.00094418 [Eh]
    Vibrational E           5.877 [kcal/mol]       24.590 [kJ/mol]       0.00936594 [Eh]
  Correction E              7.358 [kcal/mol]       30.788 [kJ/mol]       0.01172640 [Eh]
  Total E, Electronic energy at  298.15 [K]                           -100.45431187 [Eh]

  Enthalpy, H_trans = E_trans + k_B * T
    Electronic H            0.000 [kcal/mol]        0.000 [kJ/mol]       0.00000000 [Eh]
    Translational H         1.481 [kcal/mol]        6.197 [kJ/mol]       0.00236046 [Eh]
    Rotational H            0.592 [kcal/mol]        2.479 [kJ/mol]       0.00094418 [Eh]
    Vibrational H           5.877 [kcal/mol]       24.590 [kJ/mol]       0.00936594 [Eh]
  Correction H              7.951 [kcal/mol]       33.267 [kJ/mol]       0.01267059 [Eh]
  Total H, Enthalpy at  298.15 [K]                                    -100.45336768 [Eh]

  Gibbs free energy, G = H - T * S
    Electronic G            0.000 [kcal/mol]        0.000 [kJ/mol]       0.00000000 [Eh]
    Translational G        -8.931 [kcal/mol]      -37.366 [kJ/mol]      -0.01423187 [Eh]
    Rotational G           -1.362 [kcal/mol]       -5.699 [kJ/mol]      -0.00217079 [Eh]
    Vibrational G           5.877 [kcal/mol]       24.590 [kJ/mol]       0.00936594 [Eh]
  Correction G             -4.416 [kcal/mol]      -18.475 [kJ/mol]      -0.00703671 [Eh]
  Total G, Free enthalpy at  298.15 [K]                               -100.47307498 [Eh]

*** Psi4 exiting successfully. Buy a developer a beer!
