                               Psi4 1.3.2 release

  ==> Input File <==

--------------------------------------------------------------------------
memory 144 GB

molecule {
0 1
N 0.0000000000 0.0000000000 0.0000000000
H 0.0000000000 0.0000000000 1.0535284100
O 1.1513717966 0.0000000000 -0.3743228181
}

set dynamic_level 1
set basis aug-cc-pV(Q+d)Z

optimize("wB97M-V")
frequencies("wB97M-V")
--------------------------------------------------------------------------

    Molecular point group: cs
  Charge       = 0
  Multiplicity = 1
  Basis Set: AUG-CC-PV(Q+D)Z
    Blend: AUG-CC-PV(Q+D)Z
  Basis Set: (AUG-CC-PV(Q+D)Z AUX)
    Blend: AUG-CC-PVQZ-JKFIT
  @DF-RKS Final Energy:  -130.49912623862667
    Total Energy =                       -130.4991262386266442
    Molecular point group: cs
  Basis Set: AUG-CC-PV(Q+D)Z
    Blend: AUG-CC-PV(Q+D)Z
  Basis Set: (AUG-CC-PV(Q+D)Z AUX)
    Blend: AUG-CC-PVQZ-JKFIT
  @DF-RKS Final Energy:  -130.49916873912460
    Total Energy =                       -130.4991687391245989
  Basis Set: AUG-CC-PV(Q+D)Z
    Blend: AUG-CC-PV(Q+D)Z
  Basis Set: (AUG-CC-PV(Q+D)Z AUX)
    Blend: AUG-CC-PVQZ-JKFIT
  @DF-RKS Final Energy:  -130.49908128312410
    Total Energy =                       -130.4990812831240987
  Basis Set: AUG-CC-PV(Q+D)Z
    Blend: AUG-CC-PV(Q+D)Z
  Basis Set: (AUG-CC-PV(Q+D)Z AUX)
    Blend: AUG-CC-PVQZ-JKFIT
  @DF-RKS Final Energy:  -130.49913213684425
    Total Energy =                       -130.4991321368442243
  @DF-RKS Final Energy:  -130.49911504108843
    Total Energy =                       -130.4991150410884302
  @DF-RKS Final Energy:  -130.49913305462496
    Total Energy =                       -130.4991330546249628
  @DF-RKS Final Energy:  -130.49911391207709
    Total Energy =                       -130.4991139120771209
  @DF-RKS Final Energy:  -130.49949522985423
    Total Energy =                       -130.4994952298542330
  @DF-RKS Final Energy:  -130.49950469956505
    Total Energy =                       -130.4995046995650512
  @DF-RKS Final Energy:  -130.49948310146146
    Total Energy =                       -130.4994831014614647
  @DF-RKS Final Energy:  -130.49949397073311
    Total Energy =                       -130.4994939707331127
  @DF-RKS Final Energy:  -130.49949121069983
    Total Energy =                       -130.4994912106998584
  @DF-RKS Final Energy:  -130.49948410756670
    Total Energy =                       -130.4994841075667011
  @DF-RKS Final Energy:  -130.49950077896730
    Total Energy =                       -130.4995007789673025
  @DF-RKS Final Energy:  -130.49951262502469
    Total Energy =                       -130.4995126250246926
  @DF-RKS Final Energy:  -130.49950687347331
    Total Energy =                       -130.4995068734733081
  @DF-RKS Final Energy:  -130.49951562358663
    Total Energy =                       -130.4995156235866318
  @DF-RKS Final Energy:  -130.49951790311636
    Total Energy =                       -130.4995179031163275
  @DF-RKS Final Energy:  -130.49950218186677
    Total Energy =                       -130.4995021818667738
  @DF-RKS Final Energy:  -130.49951168146535
    Total Energy =                       -130.4995116814653215
  **** Optimization is complete! (in 4 steps) ****
    Final optimized geometry and variables:
  @DF-RKS Final Energy:  -130.49952759200281
    Total Energy =                       -130.4995275920028064
  @DF-RKS Final Energy:  -130.49952643039208
    Total Energy =                       -130.4995264303920806
  @DF-RKS Final Energy:  -130.49952602246455
    Total Energy =                       -130.4995260224645506
  @DF-RKS Final Energy:  -130.49952471511190
    Total Energy =                       -130.4995247151118747
  @DF-RKS Final Energy:  -130.49952530369430
    Total Energy =                       -130.4995253036942984
  @DF-RKS Final Energy:  -130.49952418277337
    Total Energy =                       -130.4995241827733707
  @DF-RKS Final Energy:  -130.49952549459056
    Total Energy =                       -130.4995254945905288
  @DF-RKS Final Energy:  -130.49952759200769
    Total Energy =                       -130.4995275920076949
  @DF-RKS Final Energy:  -130.49952643039731
    Total Energy =                       -130.4995264303972817
  @DF-RKS Final Energy:  -130.49952602246967
    Total Energy =                       -130.4995260224696665
  @DF-RKS Final Energy:  -130.49952471511725
    Total Energy =                       -130.4995247151172464
  @DF-RKS Final Energy:  -130.49952530369902
    Total Energy =                       -130.4995253036990448
  @DF-RKS Final Energy:  -130.49952418277800
    Total Energy =                       -130.4995241827780035
  @DF-RKS Final Energy:  -130.49952549459596
    Total Energy =                       -130.4995254945959573
  @DF-RKS Final Energy:  -130.49952391452365
    Total Energy =                       -130.4995239145236496
  @DF-RKS Final Energy:  -130.49952373150052
    Total Energy =                       -130.4995237315005170
  Basis Set: AUG-CC-PV(Q+D)Z
    Blend: AUG-CC-PV(Q+D)Z
  Basis Set: (AUG-CC-PV(Q+D)Z AUX)
    Blend: AUG-CC-PVQZ-JKFIT
  @DF-RKS Final Energy:  -130.49952347847392
    Total Energy =                       -130.4995234784739182
  Basis Set: AUG-CC-PV(Q+D)Z
    Blend: AUG-CC-PV(Q+D)Z
  Basis Set: (AUG-CC-PV(Q+D)Z AUX)
    Blend: AUG-CC-PVQZ-JKFIT
  @DF-RKS Final Energy:  -130.49952256828158
    Total Energy =                       -130.4995225682815772
  Multiplicity = 1
  Basis Set: AUG-CC-PV(Q+D)Z
    Blend: AUG-CC-PV(Q+D)Z
  Basis Set: (AUG-CC-PV(Q+D)Z AUX)
    Blend: AUG-CC-PVQZ-JKFIT
  @DF-RKS Final Energy:  -130.49952609757281
    Total Energy =                       -130.4995260975728115
    Molecular point group: cs

    Geometry (in Angstrom), charge = 0, multiplicity = 1:

       Center              X                  Y                   Z               Mass
    ------------   -----------------  -----------------  -----------------  -----------------
         N            0.585389426446     0.156093113235     0.000000000000    14.003074004430
         H            0.590244457847     1.211363383818     0.000000000000     1.007825032230
         O           -0.549681871320    -0.212981803190     0.000000000000    15.994914619570

  Charge       = 0
  Multiplicity = 1
  Basis Set: AUG-CC-PV(Q+D)Z
    Blend: AUG-CC-PV(Q+D)Z
  Basis Set: (AUG-CC-PV(Q+D)Z AUX)
    Blend: AUG-CC-PVQZ-JKFIT

    Orbital Energies [Eh]
    ---------------------

    Doubly Occupied:

       1Ap   -19.419732     2Ap   -14.635170     3Ap    -1.318937
       4Ap    -0.851587     5Ap    -0.654119     1App   -0.578711
       6Ap    -0.573903     7Ap    -0.354460

  @DF-RKS Final Energy:  -130.49952419216044

   => Energetics <=

    Nuclear Repulsion Energy =             30.6587479955823099
    One-Electron Energy =                -238.4174693896120232
    Two-Electron Energy =                  88.5679731142475646
    DFT Exchange-Correlation Energy =     -11.3757189356982433
    Empirical Dispersion Energy =           0.0000000000000000
    VV10 Nonlocal Energy =                  0.0669430233199798
    Total Energy =                       -130.4995241921604077

  Dipole Moment: [D]
     X:     0.4279      Y:     1.6281      Z:     0.0000     Total:     1.6834

  Vibration                       7                   8                   9
  Freq [cm^-1]                1576.2026           1716.0695           2955.9161
  Irrep                           Ap                  Ap                  Ap
  Reduced mass [u]              1.2095              9.9934              1.0756
  Force const [mDyne/A]         1.7704             17.3394              5.5370

  ==> Thermochemistry Components <==

  Entropy, S
    Electronic S            0.000 [cal/(mol K)]        0.000 [J/(mol K)]       0.00000000 [mEh/K] (multiplicity = 1)
    Translational S        36.227 [cal/(mol K)]      151.576 [J/(mol K)]       0.05773217 [mEh/K] (mol. weight = 31.0058 [u], P = 101325.00 [Pa])
    Rotational S           16.437 [cal/(mol K)]       68.770 [J/(mol K)]       0.02619325 [mEh/K] (symmetry no. = 1)
    Vibrational S           0.013 [cal/(mol K)]        0.055 [J/(mol K)]       0.00002104 [mEh/K]
  Total S                  52.677 [cal/(mol K)]      220.401 [J/(mol K)]       0.08394646 [mEh/K]
  Correction S              0.000 [cal/(mol K)]        0.000 [J/(mol K)]       0.00000000 [mEh/K]

  Constant volume heat capacity, Cv
    Electronic Cv           0.000 [cal/(mol K)]        0.000 [J/(mol K)]       0.00000000 [mEh/K]
    Translational Cv        2.981 [cal/(mol K)]       12.472 [J/(mol K)]       0.00475022 [mEh/K]
    Rotational Cv           2.981 [cal/(mol K)]       12.472 [J/(mol K)]       0.00475022 [mEh/K]
    Vibrational Cv          0.092 [cal/(mol K)]        0.385 [J/(mol K)]       0.00014664 [mEh/K]
  Total Cv                  6.054 [cal/(mol K)]       25.328 [J/(mol K)]       0.00964708 [mEh/K]
  Correction Cv             0.000 [cal/(mol K)]        0.000 [J/(mol K)]       0.00000000 [mEh/K]

  Constant pressure heat capacity, Cp
    Electronic Cp           0.000 [cal/(mol K)]        0.000 [J/(mol K)]       0.00000000 [mEh/K]
    Translational Cp        4.968 [cal/(mol K)]       20.786 [J/(mol K)]       0.00791703 [mEh/K]
    Rotational Cp           2.981 [cal/(mol K)]       12.472 [J/(mol K)]       0.00475022 [mEh/K]
    Vibrational Cp          0.092 [cal/(mol K)]        0.385 [J/(mol K)]       0.00014664 [mEh/K]
  Total Cp                  8.041 [cal/(mol K)]       33.643 [J/(mol K)]       0.01281389 [mEh/K]
  Correction Cp             0.000 [cal/(mol K)]        0.000 [J/(mol K)]       0.00000000 [mEh/K]

  ==> Thermochemistry Energy Analysis <==

  Raw electronic energy, E0
  Total E0, Electronic energy at well bottom at 0 [K]                 -130.49952759 [Eh]

  Zero-point energy, ZPE_vib = Sum_i nu_i / 2
    Electronic ZPE          0.000 [kcal/mol]        0.000 [kJ/mol]       0.00000000 [Eh]
    Translational ZPE       0.000 [kcal/mol]        0.000 [kJ/mol]       0.00000000 [Eh]
    Rotational ZPE          0.000 [kcal/mol]        0.000 [kJ/mol]       0.00000000 [Eh]
    Vibrational ZPE         8.932 [kcal/mol]       37.372 [kJ/mol]       0.01423442 [Eh]        3124.094 [cm^-1]
  Correction ZPE            8.932 [kcal/mol]       37.372 [kJ/mol]       0.01423442 [Eh]        3124.094 [cm^-1]
  Total ZPE, Electronic energy at 0 [K]                               -130.48529317 [Eh]

  Thermal Energy, E (includes ZPE)
    Electronic E            0.000 [kcal/mol]        0.000 [kJ/mol]       0.00000000 [Eh]
    Translational E         0.889 [kcal/mol]        3.718 [kJ/mol]       0.00141628 [Eh]
    Rotational E            0.889 [kcal/mol]        3.718 [kJ/mol]       0.00141628 [Eh]
    Vibrational E           8.936 [kcal/mol]       37.387 [kJ/mol]       0.01423998 [Eh]
  Correction E             10.713 [kcal/mol]       44.824 [kJ/mol]       0.01707254 [Eh]
  Total E, Electronic energy at  298.15 [K]                           -130.48245506 [Eh]

  Enthalpy, H_trans = E_trans + k_B * T
    Electronic H            0.000 [kcal/mol]        0.000 [kJ/mol]       0.00000000 [Eh]
    Translational H         1.481 [kcal/mol]        6.197 [kJ/mol]       0.00236046 [Eh]
    Rotational H            0.889 [kcal/mol]        3.718 [kJ/mol]       0.00141628 [Eh]
    Vibrational H           8.936 [kcal/mol]       37.387 [kJ/mol]       0.01423998 [Eh]
  Correction H             11.306 [kcal/mol]       47.303 [kJ/mol]       0.01801672 [Eh]
  Total H, Enthalpy at  298.15 [K]                                    -130.48151087 [Eh]

  Gibbs free energy, G = H - T * S
    Electronic G            0.000 [kcal/mol]        0.000 [kJ/mol]       0.00000000 [Eh]
    Translational G        -9.320 [kcal/mol]      -38.995 [kJ/mol]      -0.01485238 [Eh]
    Rotational G           -4.012 [kcal/mol]      -16.785 [kJ/mol]      -0.00639324 [Eh]
    Vibrational G           8.932 [kcal/mol]       37.371 [kJ/mol]       0.01423371 [Eh]
  Correction G             -4.400 [kcal/mol]      -18.410 [kJ/mol]      -0.00701192 [Eh]
  Total G, Free enthalpy at  298.15 [K]                               -130.50653951 [Eh]

*** Psi4 exiting successfully. Buy a developer a beer!
