                               Psi4 1.3.2 release

  ==> Input File <==

--------------------------------------------------------------------------
memory 144 GB

molecule {
0 1
O 0.0000000000 0.0000000000 0.0000000000
H 0.0000000000 0.0000000000 0.9638997500
Cl 1.6530447720 0.0000000000 -0.3711121967
}

set dynamic_level 1
set basis aug-cc-pV(Q+d)Z

optimize("wB97M-V")
frequencies("wB97M-V")
--------------------------------------------------------------------------

    Molecular point group: cs
  Charge       = 0
  Multiplicity = 1
  Basis Set: AUG-CC-PV(Q+D)Z
    Blend: AUG-CC-PV(Q+D)Z
  Basis Set: (AUG-CC-PV(Q+D)Z AUX)
    Blend: AUG-CC-PVQZ-JKFIT
  @DF-RKS Final Energy:  -535.97803237592382
    Total Energy =                       -535.9780323759238172
    Molecular point group: cs
  Basis Set: AUG-CC-PV(Q+D)Z
    Blend: AUG-CC-PV(Q+D)Z
  Basis Set: (AUG-CC-PV(Q+D)Z AUX)
    Blend: AUG-CC-PVQZ-JKFIT
  @DF-RKS Final Energy:  -535.97804326302025
    Total Energy =                       -535.9780432630202540
  Basis Set: AUG-CC-PV(Q+D)Z
    Blend: AUG-CC-PV(Q+D)Z
  Basis Set: (AUG-CC-PV(Q+D)Z AUX)
    Blend: AUG-CC-PVQZ-JKFIT
  @DF-RKS Final Energy:  -535.97802089119659
    Total Energy =                       -535.9780208911964792
  Basis Set: AUG-CC-PV(Q+D)Z
    Blend: AUG-CC-PV(Q+D)Z
  Basis Set: (AUG-CC-PV(Q+D)Z AUX)
    Blend: AUG-CC-PVQZ-JKFIT
  @DF-RKS Final Energy:  -535.97802519020581
    Total Energy =                       -535.9780251902058126
  @DF-RKS Final Energy:  -535.97803021632853
    Total Energy =                       -535.9780302163285342
  @DF-RKS Final Energy:  -535.97802509106691
    Total Energy =                       -535.9780250910669110
  @DF-RKS Final Energy:  -535.97803372325495
    Total Energy =                       -535.9780337232548391
  @DF-RKS Final Energy:  -535.97812283382495
    Total Energy =                       -535.9781228338250685
  @DF-RKS Final Energy:  -535.97812669509267
    Total Energy =                       -535.9781266950926693
  @DF-RKS Final Energy:  -535.97811836550443
    Total Energy =                       -535.9781183655044288
  @DF-RKS Final Energy:  -535.97811715175578
    Total Energy =                       -535.9781171517557823
  @DF-RKS Final Energy:  -535.97811930672322
    Total Energy =                       -535.9781193067231015
  @DF-RKS Final Energy:  -535.97811959026592
    Total Energy =                       -535.9781195902659192
  @DF-RKS Final Energy:  -535.97812004462617
    Total Energy =                       -535.9781200446260527
  @DF-RKS Final Energy:  -535.97813689381280
    Total Energy =                       -535.9781368938128026
  @DF-RKS Final Energy:  -535.97813638938601
    Total Energy =                       -535.9781363893860089
  @DF-RKS Final Energy:  -535.97813676718636
    Total Energy =                       -535.9781367671863563
  @DF-RKS Final Energy:  -535.97813194304547
    Total Energy =                       -535.9781319430454687
  @DF-RKS Final Energy:  -535.97813266701883
    Total Energy =                       -535.9781326670188264
  @DF-RKS Final Energy:  -535.97813354094433
    Total Energy =                       -535.9781335409443273
  **** Optimization is complete! (in 3 steps) ****
    Final optimized geometry and variables:
  @DF-RKS Final Energy:  -535.97813689124985
    Total Energy =                       -535.9781368912498465
  @DF-RKS Final Energy:  -535.97813639049150
    Total Energy =                       -535.9781363904913860
  @DF-RKS Final Energy:  -535.97813676531041
    Total Energy =                       -535.9781367653104098
  @DF-RKS Final Energy:  -535.97813194640582
    Total Energy =                       -535.9781319464058242
  @DF-RKS Final Energy:  -535.97813266476021
    Total Energy =                       -535.9781326647602100
  @DF-RKS Final Energy:  -535.97813354089533
    Total Energy =                       -535.9781335408952145
  @DF-RKS Final Energy:  -535.97813414794257
    Total Energy =                       -535.9781341479426828
  @DF-RKS Final Energy:  -535.97813689125019
    Total Energy =                       -535.9781368912501875
  @DF-RKS Final Energy:  -535.97813639049150
    Total Energy =                       -535.9781363904916134
  @DF-RKS Final Energy:  -535.97813676531030
    Total Energy =                       -535.9781367653102961
  @DF-RKS Final Energy:  -535.97813194640605
    Total Energy =                       -535.9781319464061653
  @DF-RKS Final Energy:  -535.97813266476135
    Total Energy =                       -535.9781326647613469
  @DF-RKS Final Energy:  -535.97813354089499
    Total Energy =                       -535.9781335408949872
  @DF-RKS Final Energy:  -535.97813414794314
    Total Energy =                       -535.9781341479431376
  @DF-RKS Final Energy:  -535.97813252402295
    Total Energy =                       -535.9781325240229535
  @DF-RKS Final Energy:  -535.97813143949372
    Total Energy =                       -535.9781314394936089
  Basis Set: AUG-CC-PV(Q+D)Z
    Blend: AUG-CC-PV(Q+D)Z
  Basis Set: (AUG-CC-PV(Q+D)Z AUX)
    Blend: AUG-CC-PVQZ-JKFIT
  @DF-RKS Final Energy:  -535.97813425990137
    Total Energy =                       -535.9781342599013669
  Basis Set: AUG-CC-PV(Q+D)Z
    Blend: AUG-CC-PV(Q+D)Z
  Basis Set: (AUG-CC-PV(Q+D)Z AUX)
    Blend: AUG-CC-PVQZ-JKFIT
  @DF-RKS Final Energy:  -535.97813326799735
    Total Energy =                       -535.9781332679973502
  Multiplicity = 1
  Basis Set: AUG-CC-PV(Q+D)Z
    Blend: AUG-CC-PV(Q+D)Z
  Basis Set: (AUG-CC-PV(Q+D)Z AUX)
    Blend: AUG-CC-PVQZ-JKFIT
  @DF-RKS Final Energy:  -535.97813587025041
    Total Energy =                       -535.9781358702504122
    Molecular point group: cs

    Geometry (in Angstrom), charge = 0, multiplicity = 1:

       Center              X                  Y                   Z               Mass
    ------------   -----------------  -----------------  -----------------  -----------------
         O            1.101528574155     0.232664226882     0.000000000000    15.994914619570
         H            1.113239863869     1.196809666741     0.000000000000     1.007825032230
         CL          -0.535928549522    -0.140914522697     0.000000000000    34.968852682000

  Charge       = 0
  Multiplicity = 1
  Basis Set: AUG-CC-PV(Q+D)Z
    Blend: AUG-CC-PV(Q+D)Z
  Basis Set: (AUG-CC-PV(Q+D)Z AUX)
    Blend: AUG-CC-PVQZ-JKFIT

    Orbital Energies [Eh]
    ---------------------

    Doubly Occupied:

       1Ap  -101.939121     2Ap   -19.406186     3Ap    -9.692777
       4Ap    -7.401679     5Ap    -7.388266     1App   -7.387941
       6Ap    -1.207678     7Ap    -0.924296     8Ap    -0.646928
       9Ap    -0.554784     2App   -0.529600    10Ap    -0.421849
       3App   -0.389232

  @DF-RKS Final Energy:  -535.97813450330455

   => Energetics <=

    Nuclear Repulsion Energy =             51.4770273015335107
    One-Electron Energy =                -841.4511550843255918
    Two-Electron Energy =                 282.1621854537914942
    DFT Exchange-Correlation Energy =     -28.2748680516531792
    Empirical Dispersion Energy =           0.0000000000000000
    VV10 Nonlocal Energy =                  0.1086758773492315
    Total Energy =                       -535.9781345033044317

  Dipole Moment: [D]
     X:    -0.0066      Y:     1.5281      Z:     0.0000     Total:     1.5282

  Vibration                       7                   8                   9
  Freq [cm^-1]                 790.0443           1276.8481           3813.4971
  Irrep                           Ap                  Ap                  Ap
  Reduced mass [u]             17.6266              1.0731              1.0679
  Force const [mDyne/A]         6.4822              1.0308              9.1497

  ==> Thermochemistry Components <==

  Entropy, S
    Electronic S            0.000 [cal/(mol K)]        0.000 [J/(mol K)]       0.00000000 [mEh/K] (multiplicity = 1)
    Translational S        37.767 [cal/(mol K)]      158.018 [J/(mol K)]       0.06018576 [mEh/K] (mol. weight = 51.9716 [u], P = 101325.00 [Pa])
    Rotational S           18.360 [cal/(mol K)]       76.820 [J/(mol K)]       0.02925912 [mEh/K] (symmetry no. = 1)
    Vibrational S           0.246 [cal/(mol K)]        1.028 [J/(mol K)]       0.00039143 [mEh/K]
  Total S                  56.373 [cal/(mol K)]      235.865 [J/(mol K)]       0.08983631 [mEh/K]
  Correction S              0.000 [cal/(mol K)]        0.000 [J/(mol K)]       0.00000000 [mEh/K]

  Constant volume heat capacity, Cv
    Electronic Cv           0.000 [cal/(mol K)]        0.000 [J/(mol K)]       0.00000000 [mEh/K]
    Translational Cv        2.981 [cal/(mol K)]       12.472 [J/(mol K)]       0.00475022 [mEh/K]
    Rotational Cv           2.981 [cal/(mol K)]       12.472 [J/(mol K)]       0.00475022 [mEh/K]
    Vibrational Cv          0.827 [cal/(mol K)]        3.460 [J/(mol K)]       0.00131802 [mEh/K]
  Total Cv                  6.789 [cal/(mol K)]       28.404 [J/(mol K)]       0.01081846 [mEh/K]
  Correction Cv             0.000 [cal/(mol K)]        0.000 [J/(mol K)]       0.00000000 [mEh/K]

  Constant pressure heat capacity, Cp
    Electronic Cp           0.000 [cal/(mol K)]        0.000 [J/(mol K)]       0.00000000 [mEh/K]
    Translational Cp        4.968 [cal/(mol K)]       20.786 [J/(mol K)]       0.00791703 [mEh/K]
    Rotational Cp           2.981 [cal/(mol K)]       12.472 [J/(mol K)]       0.00475022 [mEh/K]
    Vibrational Cp          0.827 [cal/(mol K)]        3.460 [J/(mol K)]       0.00131802 [mEh/K]
  Total Cp                  8.776 [cal/(mol K)]       36.718 [J/(mol K)]       0.01398527 [mEh/K]
  Correction Cp             0.000 [cal/(mol K)]        0.000 [J/(mol K)]       0.00000000 [mEh/K]

  ==> Thermochemistry Energy Analysis <==

  Raw electronic energy, E0
  Total E0, Electronic energy at well bottom at 0 [K]                 -535.97813689 [Eh]

  Zero-point energy, ZPE_vib = Sum_i nu_i / 2
    Electronic ZPE          0.000 [kcal/mol]        0.000 [kJ/mol]       0.00000000 [Eh]
    Translational ZPE       0.000 [kcal/mol]        0.000 [kJ/mol]       0.00000000 [Eh]
    Rotational ZPE          0.000 [kcal/mol]        0.000 [kJ/mol]       0.00000000 [Eh]
    Vibrational ZPE         8.406 [kcal/mol]       35.173 [kJ/mol]       0.01339651 [Eh]        2940.195 [cm^-1]
  Correction ZPE            8.406 [kcal/mol]       35.173 [kJ/mol]       0.01339651 [Eh]        2940.195 [cm^-1]
  Total ZPE, Electronic energy at 0 [K]                               -535.96474038 [Eh]

  Thermal Energy, E (includes ZPE)
    Electronic E            0.000 [kcal/mol]        0.000 [kJ/mol]       0.00000000 [Eh]
    Translational E         0.889 [kcal/mol]        3.718 [kJ/mol]       0.00141628 [Eh]
    Rotational E            0.889 [kcal/mol]        3.718 [kJ/mol]       0.00141628 [Eh]
    Vibrational E           8.465 [kcal/mol]       35.418 [kJ/mol]       0.01349013 [Eh]
  Correction E             10.243 [kcal/mol]       42.855 [kJ/mol]       0.01632269 [Eh]
  Total E, Electronic energy at  298.15 [K]                           -535.96181421 [Eh]

  Enthalpy, H_trans = E_trans + k_B * T
    Electronic H            0.000 [kcal/mol]        0.000 [kJ/mol]       0.00000000 [Eh]
    Translational H         1.481 [kcal/mol]        6.197 [kJ/mol]       0.00236046 [Eh]
    Rotational H            0.889 [kcal/mol]        3.718 [kJ/mol]       0.00141628 [Eh]
    Vibrational H           8.465 [kcal/mol]       35.418 [kJ/mol]       0.01349013 [Eh]
  Correction H             10.835 [kcal/mol]       45.334 [kJ/mol]       0.01726687 [Eh]
  Total H, Enthalpy at  298.15 [K]                                    -535.96087002 [Eh]

  Gibbs free energy, G = H - T * S
    Electronic G            0.000 [kcal/mol]        0.000 [kJ/mol]       0.00000000 [Eh]
    Translational G        -9.779 [kcal/mol]      -40.916 [kJ/mol]      -0.01558392 [Eh]
    Rotational G           -4.585 [kcal/mol]      -19.185 [kJ/mol]      -0.00730733 [Eh]
    Vibrational G           8.392 [kcal/mol]       35.112 [kJ/mol]       0.01337343 [Eh]
  Correction G             -5.973 [kcal/mol]      -24.989 [kJ/mol]      -0.00951783 [Eh]
  Total G, Free enthalpy at  298.15 [K]                               -535.98765472 [Eh]

*** Psi4 exiting successfully. Buy a developer a beer!
