                               Psi4 1.3.2 release

  ==> Input File <==

--------------------------------------------------------------------------
memory 144 GB

molecule {
0 1
N 0.0000000000 0.0000000000 0.0000000000
N 0.0000000000 0.0000000000 1.1003000000
}

set dynamic_level 1
set basis aug-cc-pV(Q+d)Z

optimize("wB97M-V")
frequencies("wB97M-V")
--------------------------------------------------------------------------

    Molecular point group: d2h
  Charge       = 0
  Multiplicity = 1
  Basis Set: AUG-CC-PV(Q+D)Z
    Blend: AUG-CC-PV(Q+D)Z
  Basis Set: (AUG-CC-PV(Q+D)Z AUX)
    Blend: AUG-CC-PVQZ-JKFIT
  @DF-RKS Final Energy:  -109.55593318293874
    Total Energy =                       -109.5559331829387446
    Molecular point group: d2h
  Basis Set: AUG-CC-PV(Q+D)Z
    Blend: AUG-CC-PV(Q+D)Z
  Basis Set: (AUG-CC-PV(Q+D)Z AUX)
    Blend: AUG-CC-PVQZ-JKFIT
  @DF-RKS Final Energy:  -109.55586620358342
    Total Energy =                       -109.5558662035834061
  Basis Set: AUG-CC-PV(Q+D)Z
    Blend: AUG-CC-PV(Q+D)Z
  Basis Set: (AUG-CC-PV(Q+D)Z AUX)
    Blend: AUG-CC-PVQZ-JKFIT
  @DF-RKS Final Energy:  -109.55599476701192
    Total Energy =                       -109.5559947670119243
  Basis Set: AUG-CC-PV(Q+D)Z
    Blend: AUG-CC-PV(Q+D)Z
  Basis Set: (AUG-CC-PV(Q+D)Z AUX)
    Blend: AUG-CC-PVQZ-JKFIT
  @DF-RKS Final Energy:  -109.55630148124449
    Total Energy =                       -109.5563014812444891
  @DF-RKS Final Energy:  -109.55629135428536
    Total Energy =                       -109.5562913542853636
  @DF-RKS Final Energy:  -109.55630580994676
    Total Energy =                       -109.5563058099467639
  @DF-RKS Final Energy:  -109.55630597315832
    Total Energy =                       -109.5563059731583166
  @DF-RKS Final Energy:  -109.55630334780891
    Total Energy =                       -109.5563033478089068
  @DF-RKS Final Energy:  -109.55630275807088
    Total Energy =                       -109.5563027580708848
  **** Optimization is complete! (in 3 steps) ****
    Final optimized geometry and variables:
  @DF-RKS Final Energy:  -109.55630597315826
    Total Energy =                       -109.5563059731582598
  @DF-RKS Final Energy:  -109.55630334780908
    Total Energy =                       -109.5563033478090915
  Basis Set: AUG-CC-PV(Q+D)Z
    Blend: AUG-CC-PV(Q+D)Z
  Basis Set: (AUG-CC-PV(Q+D)Z AUX)
    Blend: AUG-CC-PVQZ-JKFIT
  @DF-RKS Final Energy:  -109.55630275807090
    Total Energy =                       -109.5563027580708990
  Basis Set: AUG-CC-PV(Q+D)Z
    Blend: AUG-CC-PV(Q+D)Z
  Basis Set: (AUG-CC-PV(Q+D)Z AUX)
    Blend: AUG-CC-PVQZ-JKFIT
  @DF-RKS Final Energy:  -109.55630597315833
    Total Energy =                       -109.5563059731583309
  Multiplicity = 1
  Basis Set: AUG-CC-PV(Q+D)Z
    Blend: AUG-CC-PV(Q+D)Z
  Basis Set: (AUG-CC-PV(Q+D)Z AUX)
    Blend: AUG-CC-PVQZ-JKFIT
  @DF-RKS Final Energy:  -109.55630334780892
    Total Energy =                       -109.5563033478089352
    Molecular point group: d2h

    Geometry (in Angstrom), charge = 0, multiplicity = 1:

       Center              X                  Y                   Z               Mass
    ------------   -----------------  -----------------  -----------------  -----------------
         N            0.000000000000     0.000000000000    -0.543903785575    14.003074004430
         N            0.000000000000     0.000000000000     0.543903785575    14.003074004430

  Charge       = 0
  Multiplicity = 1
  Basis Set: AUG-CC-PV(Q+D)Z
    Blend: AUG-CC-PV(Q+D)Z
  Basis Set: (AUG-CC-PV(Q+D)Z AUX)
    Blend: AUG-CC-PVQZ-JKFIT

    Orbital Energies [Eh]
    ---------------------

    Doubly Occupied:

       1Ag   -14.605698     1B1u  -14.603832     2Ag    -1.259592
       2B1u   -0.668657     1B3u   -0.577000     1B2u   -0.577000
       3Ag    -0.544960

  @DF-RKS Final Energy:  -109.55630275807079

   => Energetics <=

    Nuclear Repulsion Energy =             23.8366453870225428
    One-Electron Energy =                -194.8965560522236729
    Two-Electron Energy =                  71.3446770199517175
    DFT Exchange-Correlation Energy =      -9.9000007902805081
    Empirical Dispersion Energy =           0.0000000000000000
    VV10 Nonlocal Energy =                  0.0589316774591219
    Total Energy =                       -109.5563027580707853

  Dipole Moment: [D]
     X:     0.0000      Y:     0.0000      Z:    -0.0000     Total:     0.0000

  Vibration                       6
  Freq [cm^-1]                2484.6026
  Irrep                           Ag
  Reduced mass [u]             14.0031
  Force const [mDyne/A]        50.9316

  ==> Thermochemistry Components <==

  Entropy, S
    Electronic S            0.000 [cal/(mol K)]        0.000 [J/(mol K)]       0.00000000 [mEh/K] (multiplicity = 1)
    Translational S        35.924 [cal/(mol K)]      150.307 [J/(mol K)]       0.05724883 [mEh/K] (mol. weight = 28.0061 [u], P = 101325.00 [Pa])
    Rotational S            9.801 [cal/(mol K)]       41.008 [J/(mol K)]       0.01561918 [mEh/K] (symmetry no. = 2)
    Vibrational S           0.000 [cal/(mol K)]        0.001 [J/(mol K)]       0.00000026 [mEh/K]
  Total S                  45.726 [cal/(mol K)]      191.316 [J/(mol K)]       0.07286826 [mEh/K]
  Correction S              0.000 [cal/(mol K)]        0.000 [J/(mol K)]       0.00000000 [mEh/K]

  Constant volume heat capacity, Cv
    Electronic Cv           0.000 [cal/(mol K)]        0.000 [J/(mol K)]       0.00000000 [mEh/K]
    Translational Cv        2.981 [cal/(mol K)]       12.472 [J/(mol K)]       0.00475022 [mEh/K]
    Rotational Cv           1.987 [cal/(mol K)]        8.314 [J/(mol K)]       0.00316681 [mEh/K]
    Vibrational Cv          0.002 [cal/(mol K)]        0.007 [J/(mol K)]       0.00000283 [mEh/K]
  Total Cv                  4.970 [cal/(mol K)]       20.794 [J/(mol K)]       0.00791985 [mEh/K]
  Correction Cv             0.000 [cal/(mol K)]        0.000 [J/(mol K)]       0.00000000 [mEh/K]

  Constant pressure heat capacity, Cp
    Electronic Cp           0.000 [cal/(mol K)]        0.000 [J/(mol K)]       0.00000000 [mEh/K]
    Translational Cp        4.968 [cal/(mol K)]       20.786 [J/(mol K)]       0.00791703 [mEh/K]
    Rotational Cp           1.987 [cal/(mol K)]        8.314 [J/(mol K)]       0.00316681 [mEh/K]
    Vibrational Cp          0.002 [cal/(mol K)]        0.007 [J/(mol K)]       0.00000283 [mEh/K]
  Total Cp                  6.957 [cal/(mol K)]       29.108 [J/(mol K)]       0.01108666 [mEh/K]
  Correction Cp             0.000 [cal/(mol K)]        0.000 [J/(mol K)]       0.00000000 [mEh/K]

  ==> Thermochemistry Energy Analysis <==

  Raw electronic energy, E0
  Total E0, Electronic energy at well bottom at 0 [K]                 -109.55630597 [Eh]

  Zero-point energy, ZPE_vib = Sum_i nu_i / 2
    Electronic ZPE          0.000 [kcal/mol]        0.000 [kJ/mol]       0.00000000 [Eh]
    Translational ZPE       0.000 [kcal/mol]        0.000 [kJ/mol]       0.00000000 [Eh]
    Rotational ZPE          0.000 [kcal/mol]        0.000 [kJ/mol]       0.00000000 [Eh]
    Vibrational ZPE         3.552 [kcal/mol]       14.861 [kJ/mol]       0.00566034 [Eh]        1242.301 [cm^-1]
  Correction ZPE            3.552 [kcal/mol]       14.861 [kJ/mol]       0.00566034 [Eh]        1242.301 [cm^-1]
  Total ZPE, Electronic energy at 0 [K]                               -109.55064563 [Eh]

  Thermal Energy, E (includes ZPE)
    Electronic E            0.000 [kcal/mol]        0.000 [kJ/mol]       0.00000000 [Eh]
    Translational E         0.889 [kcal/mol]        3.718 [kJ/mol]       0.00141628 [Eh]
    Rotational E            0.592 [kcal/mol]        2.479 [kJ/mol]       0.00094418 [Eh]
    Vibrational E           3.552 [kcal/mol]       14.861 [kJ/mol]       0.00566041 [Eh]
  Correction E              5.033 [kcal/mol]       21.059 [kJ/mol]       0.00802087 [Eh]
  Total E, Electronic energy at  298.15 [K]                           -109.54828510 [Eh]

  Enthalpy, H_trans = E_trans + k_B * T
    Electronic H            0.000 [kcal/mol]        0.000 [kJ/mol]       0.00000000 [Eh]
    Translational H         1.481 [kcal/mol]        6.197 [kJ/mol]       0.00236046 [Eh]
    Rotational H            0.592 [kcal/mol]        2.479 [kJ/mol]       0.00094418 [Eh]
    Vibrational H           3.552 [kcal/mol]       14.861 [kJ/mol]       0.00566041 [Eh]
  Correction H              5.626 [kcal/mol]       23.538 [kJ/mol]       0.00896506 [Eh]
  Total H, Enthalpy at  298.15 [K]                                    -109.54734092 [Eh]

  Gibbs free energy, G = H - T * S
    Electronic G            0.000 [kcal/mol]        0.000 [kJ/mol]       0.00000000 [Eh]
    Translational G        -9.230 [kcal/mol]      -38.617 [kJ/mol]      -0.01470828 [Eh]
    Rotational G           -2.330 [kcal/mol]       -9.748 [kJ/mol]      -0.00371267 [Eh]
    Vibrational G           3.552 [kcal/mol]       14.861 [kJ/mol]       0.00566034 [Eh]
  Correction G             -8.007 [kcal/mol]      -33.503 [kJ/mol]      -0.01276062 [Eh]
  Total G, Free enthalpy at  298.15 [K]                               -109.56906659 [Eh]

*** Psi4 exiting successfully. Buy a developer a beer!
