                               Psi4 1.3.2 release

  ==> Input File <==

--------------------------------------------------------------------------
memory 144 GB

molecule {
0 1
N 0.0000000000 0.0000000000 0.0000000000
H 0.0000000000 0.0000000000 1.0124000000
H 0.9722998620 0.0000000000 -0.2821112163
H -0.3756003142 0.8968229622 -0.2821112163
}

set dynamic_level 1
set basis aug-cc-pV(Q+d)Z

optimize("wB97M-V")
frequencies("wB97M-V")
--------------------------------------------------------------------------

    Molecular point group: cs
  Charge       = 0
  Multiplicity = 1
  Basis Set: AUG-CC-PV(Q+D)Z
    Blend: AUG-CC-PV(Q+D)Z
  Basis Set: (AUG-CC-PV(Q+D)Z AUX)
    Blend: AUG-CC-PVQZ-JKFIT
  @DF-RKS Final Energy:   -56.55559626764765
    Total Energy =                        -56.5555962676476511
    Molecular point group: cs
  Basis Set: AUG-CC-PV(Q+D)Z
    Blend: AUG-CC-PV(Q+D)Z
  Basis Set: (AUG-CC-PV(Q+D)Z AUX)
    Blend: AUG-CC-PVQZ-JKFIT
  @DF-RKS Final Energy:   -56.55558718438283
    Total Energy =                        -56.5555871843828299
  Basis Set: AUG-CC-PV(Q+D)Z
    Blend: AUG-CC-PV(Q+D)Z
  Basis Set: (AUG-CC-PV(Q+D)Z AUX)
    Blend: AUG-CC-PVQZ-JKFIT
  @DF-RKS Final Energy:   -56.55559993094525
    Total Energy =                        -56.5555999309452488
  Basis Set: AUG-CC-PV(Q+D)Z
    Blend: AUG-CC-PV(Q+D)Z
  Basis Set: (AUG-CC-PV(Q+D)Z AUX)
    Blend: AUG-CC-PVQZ-JKFIT
  @DF-RKS Final Energy:   -56.55558699038836
    Total Energy =                        -56.5555869903883632
  @DF-RKS Final Energy:   -56.55560046031087
    Total Energy =                        -56.5556004603108704
  @DF-RKS Final Energy:   -56.55559021459885
    Total Energy =                        -56.5555902145988512
  @DF-RKS Final Energy:   -56.55559383312544
    Total Energy =                        -56.5555938331254353
  @DF-RKS Final Energy:   -56.55559020290828
    Total Energy =                        -56.5555902029082773
  @DF-RKS Final Energy:   -56.55559384796328
    Total Energy =                        -56.5555938479632800
  @DF-RKS Final Energy:   -56.55563347730281
    Total Energy =                        -56.5556334773027913
  @DF-RKS Final Energy:   -56.55562740205256
    Total Energy =                        -56.5556274020525649
  @DF-RKS Final Energy:   -56.55563415224300
    Total Energy =                        -56.5556341522430017
  @DF-RKS Final Energy:   -56.55562737504606
    Total Energy =                        -56.5556273750460576
  @DF-RKS Final Energy:   -56.55563457339706
    Total Energy =                        -56.5556345733970574
  @DF-RKS Final Energy:   -56.55563209167239
    Total Energy =                        -56.5556320916723863
  @DF-RKS Final Energy:   -56.55562632916693
    Total Energy =                        -56.5556263291669268
  @DF-RKS Final Energy:   -56.55563210547221
    Total Energy =                        -56.5556321054722062
  @DF-RKS Final Energy:   -56.55562632525259
    Total Energy =                        -56.5556263252525895
  @DF-RKS Final Energy:   -56.55564016025192
    Total Energy =                        -56.5556401602519188
  @DF-RKS Final Energy:   -56.55563733655772
    Total Energy =                        -56.5556373365577159
  **** Optimization is complete! (in 3 steps) ****
    Final optimized geometry and variables:
  @DF-RKS Final Energy:   -56.55563608763072
    Total Energy =                        -56.5556360876307167
  @DF-RKS Final Energy:   -56.55563565744071
    Total Energy =                        -56.5556356574407104
  @DF-RKS Final Energy:   -56.55563608357906
    Total Energy =                        -56.5556360835790528
  @DF-RKS Final Energy:   -56.55563565085486
    Total Energy =                        -56.5556356508548603
  @DF-RKS Final Energy:   -56.55563831114592
    Total Energy =                        -56.5556383111459127
  @DF-RKS Final Energy:   -56.55563773906611
    Total Energy =                        -56.5556377390661140
  @DF-RKS Final Energy:   -56.55563218880209
    Total Energy =                        -56.5556321888020861
  @DF-RKS Final Energy:   -56.55563232002734
    Total Energy =                        -56.5556323200273496
  @DF-RKS Final Energy:   -56.55563731828567
    Total Energy =                        -56.5556373182856689
  @DF-RKS Final Energy:   -56.55563750065035
    Total Energy =                        -56.5556375006503487
  @DF-RKS Final Energy:   -56.55563715783916
    Total Energy =                        -56.5556371578391577
  @DF-RKS Final Energy:   -56.55563735478015
    Total Energy =                        -56.5556373547801456
  @DF-RKS Final Energy:   -56.55563266369351
    Total Energy =                        -56.5556326636935083
  @DF-RKS Final Energy:   -56.55563281000242
    Total Energy =                        -56.5556328100024217
  @DF-RKS Final Energy:   -56.55562929178915
    Total Energy =                        -56.5556292917891525
  @DF-RKS Final Energy:   -56.55563014011181
    Total Energy =                        -56.5556301401118091
  Basis Set: AUG-CC-PV(Q+D)Z
    Blend: AUG-CC-PV(Q+D)Z
  Basis Set: (AUG-CC-PV(Q+D)Z AUX)
    Blend: AUG-CC-PVQZ-JKFIT
  @DF-RKS Final Energy:   -56.55563603520338
    Total Energy =                        -56.5556360352033849
  Basis Set: AUG-CC-PV(Q+D)Z
    Blend: AUG-CC-PV(Q+D)Z
  Basis Set: (AUG-CC-PV(Q+D)Z AUX)
    Blend: AUG-CC-PVQZ-JKFIT
  @DF-RKS Final Energy:   -56.55563782509660
    Total Energy =                        -56.5556378250966034
  Multiplicity = 1
  Basis Set: AUG-CC-PV(Q+D)Z
    Blend: AUG-CC-PV(Q+D)Z
  Basis Set: (AUG-CC-PV(Q+D)Z AUX)
    Blend: AUG-CC-PVQZ-JKFIT
  @DF-RKS Final Energy:   -56.55563853155861
    Total Energy =                        -56.5556385315586141
    Molecular point group: c1

    Geometry (in Angstrom), charge = 0, multiplicity = 1:

       Center              X                  Y                   Z               Mass
    ------------   -----------------  -----------------  -----------------  -----------------
         N           -0.042516068358    -0.051095227115    -0.000265313937    14.003074004430
         H            0.557476320227    -0.062286917127     0.813991773892     1.007825032230
         H            0.558417293959    -0.065276573693    -0.813055856652     1.007825032230
         H           -0.525160468503     0.837498473267     0.002750447529     1.007825032230

  Charge       = 0
  Multiplicity = 1
  Basis Set: AUG-CC-PV(Q+D)Z
    Blend: AUG-CC-PV(Q+D)Z
  Basis Set: (AUG-CC-PV(Q+D)Z AUX)
    Blend: AUG-CC-PVQZ-JKFIT

    Orbital Energies [Eh]
    ---------------------

    Doubly Occupied:

       1A    -14.479848     2A     -0.975853     3A     -0.567963
       4A     -0.566805     5A     -0.374660

  @DF-RKS Final Energy:   -56.55563853152572

   => Energetics <=

    Nuclear Repulsion Energy =             11.9652516688406934
    One-Electron Energy =                 -99.6691694900623588
    Two-Electron Energy =                  36.6680729903626172
    DFT Exchange-Correlation Energy =      -5.5616228752468242
    Empirical Dispersion Energy =           0.0000000000000000
    VV10 Nonlocal Energy =                  0.0418291745801455
    Total Energy =                        -56.5556385315257302

  Dipole Moment: [D]
     X:     0.9716      Y:     1.1677      Z:     0.0024     Total:     1.5191

  Vibration                       7                   8                   9
  Freq [cm^-1]                1025.6260           1175.7335           1650.2662
  Irrep                           Ap                 App                  Ap
  Reduced mass [u]              1.1817              1.0527              1.0667
  Force const [mDyne/A]         0.7324              0.8574              1.7116

  Vibration                       10                  11                  12
  Freq [cm^-1]                3498.1823           3503.4742           3616.6860
  Irrep                           Ap                 App                  Ap
  Reduced mass [u]              1.0259              1.1051              1.0901
  Force const [mDyne/A]         7.3970              7.9919              8.4009

  ==> Thermochemistry Components <==

  Entropy, S
    Electronic S            0.000 [cal/(mol K)]        0.000 [J/(mol K)]       0.00000000 [mEh/K] (multiplicity = 1)
    Translational S        34.441 [cal/(mol K)]      144.100 [J/(mol K)]       0.05488488 [mEh/K] (mol. weight = 17.0265 [u], P = 101325.00 [Pa])
    Rotational S           13.606 [cal/(mol K)]       56.927 [J/(mol K)]       0.02168236 [mEh/K] (symmetry no. = 1)
    Vibrational S           0.136 [cal/(mol K)]        0.570 [J/(mol K)]       0.00021713 [mEh/K]
  Total S                  48.183 [cal/(mol K)]      201.597 [J/(mol K)]       0.07678437 [mEh/K]
  Correction S              0.000 [cal/(mol K)]        0.000 [J/(mol K)]       0.00000000 [mEh/K]

  Constant volume heat capacity, Cv
    Electronic Cv           0.000 [cal/(mol K)]        0.000 [J/(mol K)]       0.00000000 [mEh/K]
    Translational Cv        2.981 [cal/(mol K)]       12.472 [J/(mol K)]       0.00475022 [mEh/K]
    Rotational Cv           2.981 [cal/(mol K)]       12.472 [J/(mol K)]       0.00475022 [mEh/K]
    Vibrational Cv          0.615 [cal/(mol K)]        2.574 [J/(mol K)]       0.00098035 [mEh/K]
  Total Cv                  6.577 [cal/(mol K)]       27.517 [J/(mol K)]       0.01048078 [mEh/K]
  Correction Cv             0.000 [cal/(mol K)]        0.000 [J/(mol K)]       0.00000000 [mEh/K]

  Constant pressure heat capacity, Cp
    Electronic Cp           0.000 [cal/(mol K)]        0.000 [J/(mol K)]       0.00000000 [mEh/K]
    Translational Cp        4.968 [cal/(mol K)]       20.786 [J/(mol K)]       0.00791703 [mEh/K]
    Rotational Cp           2.981 [cal/(mol K)]       12.472 [J/(mol K)]       0.00475022 [mEh/K]
    Vibrational Cp          0.615 [cal/(mol K)]        2.574 [J/(mol K)]       0.00098035 [mEh/K]
  Total Cp                  8.564 [cal/(mol K)]       35.832 [J/(mol K)]       0.01364759 [mEh/K]
  Correction Cp             0.000 [cal/(mol K)]        0.000 [J/(mol K)]       0.00000000 [mEh/K]

  ==> Thermochemistry Energy Analysis <==

  Raw electronic energy, E0
  Total E0, Electronic energy at well bottom at 0 [K]                  -56.55564016 [Eh]

  Zero-point energy, ZPE_vib = Sum_i nu_i / 2
    Electronic ZPE          0.000 [kcal/mol]        0.000 [kJ/mol]       0.00000000 [Eh]
    Translational ZPE       0.000 [kcal/mol]        0.000 [kJ/mol]       0.00000000 [Eh]
    Rotational ZPE          0.000 [kcal/mol]        0.000 [kJ/mol]       0.00000000 [Eh]
    Vibrational ZPE        20.686 [kcal/mol]       86.550 [kJ/mol]       0.03296501 [Eh]        7234.984 [cm^-1]
  Correction ZPE           20.686 [kcal/mol]       86.550 [kJ/mol]       0.03296501 [Eh]        7234.984 [cm^-1]
  Total ZPE, Electronic energy at 0 [K]                                -56.52267515 [Eh]

  Thermal Energy, E (includes ZPE)
    Electronic E            0.000 [kcal/mol]        0.000 [kJ/mol]       0.00000000 [Eh]
    Translational E         0.889 [kcal/mol]        3.718 [kJ/mol]       0.00141628 [Eh]
    Rotational E            0.889 [kcal/mol]        3.718 [kJ/mol]       0.00141628 [Eh]
    Vibrational E          20.720 [kcal/mol]       86.693 [kJ/mol]       0.03301946 [Eh]
  Correction E             22.497 [kcal/mol]       94.129 [kJ/mol]       0.03585201 [Eh]
  Total E, Electronic energy at  298.15 [K]                            -56.51978815 [Eh]

  Enthalpy, H_trans = E_trans + k_B * T
    Electronic H            0.000 [kcal/mol]        0.000 [kJ/mol]       0.00000000 [Eh]
    Translational H         1.481 [kcal/mol]        6.197 [kJ/mol]       0.00236046 [Eh]
    Rotational H            0.889 [kcal/mol]        3.718 [kJ/mol]       0.00141628 [Eh]
    Vibrational H          20.720 [kcal/mol]       86.693 [kJ/mol]       0.03301946 [Eh]
  Correction H             23.090 [kcal/mol]       96.608 [kJ/mol]       0.03679619 [Eh]
  Total H, Enthalpy at  298.15 [K]                                     -56.51884397 [Eh]

  Gibbs free energy, G = H - T * S
    Electronic G            0.000 [kcal/mol]        0.000 [kJ/mol]       0.00000000 [Eh]
    Translational G        -8.787 [kcal/mol]      -36.766 [kJ/mol]      -0.01400347 [Eh]
    Rotational G           -3.168 [kcal/mol]      -13.254 [kJ/mol]      -0.00504832 [Eh]
    Vibrational G          20.679 [kcal/mol]       86.523 [kJ/mol]       0.03295472 [Eh]
  Correction G              8.724 [kcal/mol]       36.502 [kJ/mol]       0.01390293 [Eh]
  Total G, Free enthalpy at  298.15 [K]                                -56.54173723 [Eh]

*** Psi4 exiting successfully. Buy a developer a beer!
