                               Psi4 1.3.2 release

  ==> Input File <==

--------------------------------------------------------------------------
memory 144 GB

molecule {
0 1
N 0.0000000000 0.0000000000 0.0000000000
N 0.0000000000 0.0000000000 1.1291000000
O 0.0000000000 -0.0000000000 2.3161000000
}

set dynamic_level 1
set basis aug-cc-pV(Q+d)Z

optimize("wB97M-V")
frequencies("wB97M-V")
--------------------------------------------------------------------------

    Molecular point group: c2v
  Charge       = 0
  Multiplicity = 1
  Basis Set: AUG-CC-PV(Q+D)Z
    Blend: AUG-CC-PV(Q+D)Z
  Basis Set: (AUG-CC-PV(Q+D)Z AUX)
    Blend: AUG-CC-PVQZ-JKFIT
  @DF-RKS Final Energy:  -184.70199883291460
    Total Energy =                       -184.7019988329145974
    Molecular point group: c2v
  Basis Set: AUG-CC-PV(Q+D)Z
    Blend: AUG-CC-PV(Q+D)Z
  Basis Set: (AUG-CC-PV(Q+D)Z AUX)
    Blend: AUG-CC-PVQZ-JKFIT
  @DF-RKS Final Energy:  -184.70193905572137
    Total Energy =                       -184.7019390557213399
  Basis Set: AUG-CC-PV(Q+D)Z
    Blend: AUG-CC-PV(Q+D)Z
  Basis Set: (AUG-CC-PV(Q+D)Z AUX)
    Blend: AUG-CC-PVQZ-JKFIT
  @DF-RKS Final Energy:  -184.70205547190926
    Total Energy =                       -184.7020554719092900
  Basis Set: AUG-CC-PV(Q+D)Z
    Blend: AUG-CC-PV(Q+D)Z
  Basis Set: (AUG-CC-PV(Q+D)Z AUX)
    Blend: AUG-CC-PVQZ-JKFIT
  @DF-RKS Final Energy:  -184.70201524700676
    Total Energy =                       -184.7020152470067842
  @DF-RKS Final Energy:  -184.70197910939243
    Total Energy =                       -184.7019791093924539
  @DF-RKS Final Energy:  -184.70253550892210
    Total Energy =                       -184.7025355089220966
  @DF-RKS Final Energy:  -184.70252571422893
    Total Energy =                       -184.7025257142289547
  @DF-RKS Final Energy:  -184.70254184944650
    Total Energy =                       -184.7025418494464759
  @DF-RKS Final Energy:  -184.70253756068914
    Total Energy =                       -184.7025375606891657
  @DF-RKS Final Energy:  -184.70252993143086
    Total Energy =                       -184.7025299314308597
  @DF-RKS Final Energy:  -184.70254483631234
    Total Energy =                       -184.7025448363123132
  @DF-RKS Final Energy:  -184.70254337773341
    Total Energy =                       -184.7025433777334058
  @DF-RKS Final Energy:  -184.70254278547597
    Total Energy =                       -184.7025427854759698
  @DF-RKS Final Energy:  -184.70254338200465
    Total Energy =                       -184.7025433820046487
  @DF-RKS Final Energy:  -184.70254274268416
    Total Energy =                       -184.7025427426841873
  **** Optimization is complete! (in 3 steps) ****
    Final optimized geometry and variables:
  @DF-RKS Final Energy:  -184.70254483578771
    Total Energy =                       -184.7025448357877053
  @DF-RKS Final Energy:  -184.70254337102213
    Total Energy =                       -184.7025433710221307
  @DF-RKS Final Energy:  -184.70254279053211
    Total Energy =                       -184.7025427905321067
  @DF-RKS Final Energy:  -184.70254338187917
    Total Energy =                       -184.7025433818791385
  @DF-RKS Final Energy:  -184.70254274299134
    Total Energy =                       -184.7025427429913407
  @DF-RKS Final Energy:  -184.70254483578739
    Total Energy =                       -184.7025448357874211
  @DF-RKS Final Energy:  -184.70254337102213
    Total Energy =                       -184.7025433710221307
  @DF-RKS Final Energy:  -184.70254279053154
    Total Energy =                       -184.7025427905315667
  @DF-RKS Final Energy:  -184.70254338187925
    Total Energy =                       -184.7025433818792521
  @DF-RKS Final Energy:  -184.70254274299131
    Total Energy =                       -184.7025427429913123
  Basis Set: AUG-CC-PV(Q+D)Z
    Blend: AUG-CC-PV(Q+D)Z
  Basis Set: (AUG-CC-PV(Q+D)Z AUX)
    Blend: AUG-CC-PVQZ-JKFIT
  @DF-RKS Final Energy:  -184.70254252420798
    Total Energy =                       -184.7025425242079848
  Basis Set: AUG-CC-PV(Q+D)Z
    Blend: AUG-CC-PV(Q+D)Z
  Basis Set: (AUG-CC-PV(Q+D)Z AUX)
    Blend: AUG-CC-PVQZ-JKFIT
  @DF-RKS Final Energy:  -184.70254372848748
    Total Energy =                       -184.7025437284875125
  Multiplicity = 1
  Basis Set: AUG-CC-PV(Q+D)Z
    Blend: AUG-CC-PV(Q+D)Z
  Basis Set: (AUG-CC-PV(Q+D)Z AUX)
    Blend: AUG-CC-PVQZ-JKFIT
  @DF-RKS Final Energy:  -184.70254465446757
    Total Energy =                       -184.7025446544675731
    Molecular point group: cs

    Geometry (in Angstrom), charge = 0, multiplicity = 1:

       Center              X                  Y                   Z               Mass
    ------------   -----------------  -----------------  -----------------  -----------------
         N            0.000000000000    -0.000300090097    -1.189534364192    14.003074004430
         N            0.000000000000     0.000582956166    -0.075114841414    14.003074004430
         O            0.000000000000    -0.000247640865     1.107162922525    15.994914619570

  Charge       = 0
  Multiplicity = 1
  Basis Set: AUG-CC-PV(Q+D)Z
    Blend: AUG-CC-PV(Q+D)Z
  Basis Set: (AUG-CC-PV(Q+D)Z AUX)
    Blend: AUG-CC-PVQZ-JKFIT

    Orbital Energies [Eh]
    ---------------------

    Doubly Occupied:

       1Ap   -19.428125     2Ap   -14.740929     3Ap   -14.605721
       4Ap    -1.381863     5Ap    -1.224406     6Ap    -0.721654
       1App   -0.686905     7Ap    -0.686905     8Ap    -0.595309
       2App   -0.445523     9Ap    -0.445523

  @DF-RKS Final Energy:  -184.70254464061318

   => Energetics <=

    Nuclear Repulsion Energy =             61.2353751086516596
    One-Electron Energy =                -371.7876375464290959
    Two-Electron Energy =                 141.9494620965944023
    DFT Exchange-Correlation Energy =     -16.1909508116062142
    Empirical Dispersion Energy =           0.0000000000000000
    VV10 Nonlocal Energy =                  0.0912065121760288
    Total Energy =                       -184.7025446406132119

  Dipole Moment: [D]
     X:     0.0000      Y:     0.0010      Z:    -0.1978     Total:     0.1978

  Vibration                       6                   7                   8
  Freq [cm^-1]                 619.1158            642.3334           1344.1552
  Irrep                           B1                  B2                  A1
  Reduced mass [u]             14.2517             14.2517             15.1301
  Force const [mDyne/A]         3.2186              3.4645             16.1061

  Vibration                       9
  Freq [cm^-1]                2377.4135
  Irrep                           A1
  Reduced mass [u]             14.0702
  Force const [mDyne/A]        46.8554

  ==> Thermochemistry Components <==

  Entropy, S
    Electronic S            0.000 [cal/(mol K)]        0.000 [J/(mol K)]       0.00000000 [mEh/K] (multiplicity = 1)
    Translational S        37.271 [cal/(mol K)]      155.941 [J/(mol K)]       0.05939493 [mEh/K] (mol. weight = 44.0011 [u], P = 101325.00 [Pa])
    Rotational S           14.279 [cal/(mol K)]       59.742 [J/(mol K)]       0.02275448 [mEh/K] (symmetry no. = 1)
    Vibrational S           0.823 [cal/(mol K)]        3.444 [J/(mol K)]       0.00131184 [mEh/K]
  Total S                  52.373 [cal/(mol K)]      219.127 [J/(mol K)]       0.08346125 [mEh/K]
  Correction S              0.000 [cal/(mol K)]        0.000 [J/(mol K)]       0.00000000 [mEh/K]

  Constant volume heat capacity, Cv
    Electronic Cv           0.000 [cal/(mol K)]        0.000 [J/(mol K)]       0.00000000 [mEh/K]
    Translational Cv        2.981 [cal/(mol K)]       12.472 [J/(mol K)]       0.00475022 [mEh/K]
    Rotational Cv           1.987 [cal/(mol K)]        8.314 [J/(mol K)]       0.00316681 [mEh/K]
    Vibrational Cv          2.066 [cal/(mol K)]        8.642 [J/(mol K)]       0.00329170 [mEh/K]
  Total Cv                  7.034 [cal/(mol K)]       29.429 [J/(mol K)]       0.01120872 [mEh/K]
  Correction Cv             0.000 [cal/(mol K)]        0.000 [J/(mol K)]       0.00000000 [mEh/K]

  Constant pressure heat capacity, Cp
    Electronic Cp           0.000 [cal/(mol K)]        0.000 [J/(mol K)]       0.00000000 [mEh/K]
    Translational Cp        4.968 [cal/(mol K)]       20.786 [J/(mol K)]       0.00791703 [mEh/K]
    Rotational Cp           1.987 [cal/(mol K)]        8.314 [J/(mol K)]       0.00316681 [mEh/K]
    Vibrational Cp          2.066 [cal/(mol K)]        8.642 [J/(mol K)]       0.00329170 [mEh/K]
  Total Cp                  9.021 [cal/(mol K)]       37.743 [J/(mol K)]       0.01437554 [mEh/K]
  Correction Cp             0.000 [cal/(mol K)]        0.000 [J/(mol K)]       0.00000000 [mEh/K]

  ==> Thermochemistry Energy Analysis <==

  Raw electronic energy, E0
  Total E0, Electronic energy at well bottom at 0 [K]                 -184.70254484 [Eh]

  Zero-point energy, ZPE_vib = Sum_i nu_i / 2
    Electronic ZPE          0.000 [kcal/mol]        0.000 [kJ/mol]       0.00000000 [Eh]
    Translational ZPE       0.000 [kcal/mol]        0.000 [kJ/mol]       0.00000000 [Eh]
    Rotational ZPE          0.000 [kcal/mol]        0.000 [kJ/mol]       0.00000000 [Eh]
    Vibrational ZPE         7.124 [kcal/mol]       29.805 [kJ/mol]       0.01135215 [Eh]        2491.509 [cm^-1]
  Correction ZPE            7.124 [kcal/mol]       29.805 [kJ/mol]       0.01135215 [Eh]        2491.509 [cm^-1]
  Total ZPE, Electronic energy at 0 [K]                               -184.69119269 [Eh]

  Thermal Energy, E (includes ZPE)
    Electronic E            0.000 [kcal/mol]        0.000 [kJ/mol]       0.00000000 [Eh]
    Translational E         0.889 [kcal/mol]        3.718 [kJ/mol]       0.00141628 [Eh]
    Rotational E            0.592 [kcal/mol]        2.479 [kJ/mol]       0.00094418 [Eh]
    Vibrational E           7.310 [kcal/mol]       30.586 [kJ/mol]       0.01164945 [Eh]
  Correction E              8.791 [kcal/mol]       36.783 [kJ/mol]       0.01400992 [Eh]
  Total E, Electronic energy at  298.15 [K]                           -184.68853492 [Eh]

  Enthalpy, H_trans = E_trans + k_B * T
    Electronic H            0.000 [kcal/mol]        0.000 [kJ/mol]       0.00000000 [Eh]
    Translational H         1.481 [kcal/mol]        6.197 [kJ/mol]       0.00236046 [Eh]
    Rotational H            0.592 [kcal/mol]        2.479 [kJ/mol]       0.00094418 [Eh]
    Vibrational H           7.310 [kcal/mol]       30.586 [kJ/mol]       0.01164945 [Eh]
  Correction H              9.384 [kcal/mol]       39.262 [kJ/mol]       0.01495410 [Eh]
  Total H, Enthalpy at  298.15 [K]                                    -184.68759074 [Eh]

  Gibbs free energy, G = H - T * S
    Electronic G            0.000 [kcal/mol]        0.000 [kJ/mol]       0.00000000 [Eh]
    Translational G        -9.631 [kcal/mol]      -40.297 [kJ/mol]      -0.01534814 [Eh]
    Rotational G           -3.665 [kcal/mol]      -15.333 [kJ/mol]      -0.00584006 [Eh]
    Vibrational G           7.065 [kcal/mol]       29.559 [kJ/mol]       0.01125833 [Eh]
  Correction G             -6.231 [kcal/mol]      -26.071 [kJ/mol]      -0.00992987 [Eh]
  Total G, Free enthalpy at  298.15 [K]                               -184.71247471 [Eh]

*** Psi4 exiting successfully. Buy a developer a beer!
