                               Psi4 1.3.2 release

  ==> Input File <==

--------------------------------------------------------------------------
memory 144 GB

molecule {
0 1
O 0.0000000000 0.0000000000 0.0000000000
C 0.0000000000 0.0000000000 1.1584320400
S 0.0000000000 0.0000000000 2.7252829900
}

set dynamic_level 1
set basis aug-cc-pV(Q+d)Z

optimize("wB97M-V")
frequencies("wB97M-V")
--------------------------------------------------------------------------

    Molecular point group: c2v
  Charge       = 0
  Multiplicity = 1
  Basis Set: AUG-CC-PV(Q+D)Z
    Blend: AUG-CC-PV(Q+D)Z
  Basis Set: (AUG-CC-PV(Q+D)Z AUX)
    Blend: AUG-CC-PVQZ-JKFIT
  @DF-RKS Final Energy:  -511.56658874165970
    Total Energy =                       -511.5665887416597002
    Molecular point group: c2v
  Basis Set: AUG-CC-PV(Q+D)Z
    Blend: AUG-CC-PV(Q+D)Z
  Basis Set: (AUG-CC-PV(Q+D)Z AUX)
    Blend: AUG-CC-PVQZ-JKFIT
  @DF-RKS Final Energy:  -511.56656213664058
    Total Energy =                       -511.5665621366405276
  Basis Set: AUG-CC-PV(Q+D)Z
    Blend: AUG-CC-PV(Q+D)Z
  Basis Set: (AUG-CC-PV(Q+D)Z AUX)
    Blend: AUG-CC-PVQZ-JKFIT
  @DF-RKS Final Energy:  -511.56661312702170
    Total Energy =                       -511.5666131270216965
  Basis Set: AUG-CC-PV(Q+D)Z
    Blend: AUG-CC-PV(Q+D)Z
  Basis Set: (AUG-CC-PV(Q+D)Z AUX)
    Blend: AUG-CC-PVQZ-JKFIT
  @DF-RKS Final Energy:  -511.56659787032095
    Total Energy =                       -511.5665978703209475
  @DF-RKS Final Energy:  -511.56657703970097
    Total Energy =                       -511.5665770397009737
  @DF-RKS Final Energy:  -511.56675977715150
    Total Energy =                       -511.5667597771515034
  @DF-RKS Final Energy:  -511.56675552475417
    Total Energy =                       -511.5667555247542282
  @DF-RKS Final Energy:  -511.56676168917636
    Total Energy =                       -511.5667616891763601
  @DF-RKS Final Energy:  -511.56676084975550
    Total Energy =                       -511.5667608497554966
  @DF-RKS Final Energy:  -511.56675599278645
    Total Energy =                       -511.5667559927864545
  @DF-RKS Final Energy:  -511.56676179134740
    Total Energy =                       -511.5667617913474032
  @DF-RKS Final Energy:  -511.56676051674214
    Total Energy =                       -511.5667605167421357
  @DF-RKS Final Energy:  -511.56676070882634
    Total Energy =                       -511.5667607088263367
  @DF-RKS Final Energy:  -511.56676074857023
    Total Energy =                       -511.5667607485702888
  @DF-RKS Final Energy:  -511.56676008114016
    Total Energy =                       -511.5667600811401030
  **** Optimization is complete! (in 3 steps) ****
    Final optimized geometry and variables:
  @DF-RKS Final Energy:  -511.56676179134729
    Total Energy =                       -511.5667617913472895
  @DF-RKS Final Energy:  -511.56676051352684
    Total Energy =                       -511.5667605135269014
  @DF-RKS Final Energy:  -511.56676070335789
    Total Energy =                       -511.5667607033579429
  @DF-RKS Final Energy:  -511.56676075051212
    Total Energy =                       -511.5667607505121168
  @DF-RKS Final Energy:  -511.56676008114107
    Total Energy =                       -511.5667600811411262
  @DF-RKS Final Energy:  -511.56676179134718
    Total Energy =                       -511.5667617913471759
  @DF-RKS Final Energy:  -511.56676051352730
    Total Energy =                       -511.5667605135272993
  @DF-RKS Final Energy:  -511.56676070335800
    Total Energy =                       -511.5667607033579998
  @DF-RKS Final Energy:  -511.56676075051212
    Total Energy =                       -511.5667607505120600
  @DF-RKS Final Energy:  -511.56676008114135
    Total Energy =                       -511.5667600811414104
  Basis Set: AUG-CC-PV(Q+D)Z
    Blend: AUG-CC-PV(Q+D)Z
  Basis Set: (AUG-CC-PV(Q+D)Z AUX)
    Blend: AUG-CC-PVQZ-JKFIT
  @DF-RKS Final Energy:  -511.56676078643886
    Total Energy =                       -511.5667607864388629
  Basis Set: AUG-CC-PV(Q+D)Z
    Blend: AUG-CC-PV(Q+D)Z
  Basis Set: (AUG-CC-PV(Q+D)Z AUX)
    Blend: AUG-CC-PVQZ-JKFIT
  @DF-RKS Final Energy:  -511.56676126100803
    Total Energy =                       -511.5667612610079686
  Multiplicity = 1
  Basis Set: AUG-CC-PV(Q+D)Z
    Blend: AUG-CC-PV(Q+D)Z
  Basis Set: (AUG-CC-PV(Q+D)Z AUX)
    Blend: AUG-CC-PVQZ-JKFIT
  @DF-RKS Final Energy:  -511.56676165013005
    Total Energy =                       -511.5667616501300472
    Molecular point group: cs

    Geometry (in Angstrom), charge = 0, multiplicity = 1:

       Center              X                  Y                   Z               Mass
    ------------   -----------------  -----------------  -----------------  -----------------
         O            0.000000000000    -0.000287552666    -1.675622335189    15.994914619570
         C            0.000000000000     0.000665755992    -0.525338437834    12.000000000000
         S            0.000000000000    -0.000106020394     1.035450511148    31.972071174400

  Charge       = 0
  Multiplicity = 1
  Basis Set: AUG-CC-PV(Q+D)Z
    Blend: AUG-CC-PV(Q+D)Z
  Basis Set: (AUG-CC-PV(Q+D)Z AUX)
    Blend: AUG-CC-PVQZ-JKFIT

    Orbital Energies [Eh]
    ---------------------

    Doubly Occupied:

       1Ap   -89.237164     2Ap   -19.419573     3Ap   -10.512019
       4Ap    -8.152861     5Ap    -6.063398     1App   -6.057593
       6Ap    -6.057593     7Ap    -1.279715     8Ap    -0.945583
       9Ap    -0.669573     2App   -0.595702    10Ap    -0.595702
      11Ap    -0.577102     3App   -0.396238    12Ap    -0.396238

  @DF-RKS Final Energy:  -511.56676164584979

   => Energetics <=

    Nuclear Repulsion Energy =             79.6146812623092188
    One-Electron Energy =                -861.7121424337832423
    Two-Electron Energy =                 300.3234677920196418
    DFT Exchange-Correlation Energy =     -29.9172441924990764
    Empirical Dispersion Energy =           0.0000000000000000
    VV10 Nonlocal Energy =                  0.1244759261036654
    Total Energy =                       -511.5667616458497946

  Dipole Moment: [D]
     X:     0.0000      Y:     0.0006      Z:     0.6942     Total:     0.6942

  Vibration                       6                   7                   8
  Freq [cm^-1]                 546.3777            554.5962            894.6780
  Irrep                           B1                  B2                  A1
  Reduced mass [u]             13.0329             13.0329             19.5894
  Force const [mDyne/A]         2.2923              2.3618              9.2386

  Vibration                       9
  Freq [cm^-1]                2146.6209
  Irrep                           A1
  Reduced mass [u]             13.1484
  Force const [mDyne/A]        35.6972

  ==> Thermochemistry Components <==

  Entropy, S
    Electronic S            0.000 [cal/(mol K)]        0.000 [J/(mol K)]       0.00000000 [mEh/K] (multiplicity = 1)
    Translational S        38.194 [cal/(mol K)]      159.802 [J/(mol K)]       0.06086550 [mEh/K] (mol. weight = 59.9670 [u], P = 101325.00 [Pa])
    Rotational S           15.742 [cal/(mol K)]       65.865 [J/(mol K)]       0.02508683 [mEh/K] (symmetry no. = 1)
    Vibrational S           1.230 [cal/(mol K)]        5.145 [J/(mol K)]       0.00195980 [mEh/K]
  Total S                  55.166 [cal/(mol K)]      230.813 [J/(mol K)]       0.08791213 [mEh/K]
  Correction S              0.000 [cal/(mol K)]        0.000 [J/(mol K)]       0.00000000 [mEh/K]

  Constant volume heat capacity, Cv
    Electronic Cv           0.000 [cal/(mol K)]        0.000 [J/(mol K)]       0.00000000 [mEh/K]
    Translational Cv        2.981 [cal/(mol K)]       12.472 [J/(mol K)]       0.00475022 [mEh/K]
    Rotational Cv           1.987 [cal/(mol K)]        8.314 [J/(mol K)]       0.00316681 [mEh/K]
    Vibrational Cv          2.791 [cal/(mol K)]       11.679 [J/(mol K)]       0.00444834 [mEh/K]
  Total Cv                  7.759 [cal/(mol K)]       32.465 [J/(mol K)]       0.01236536 [mEh/K]
  Correction Cv             0.000 [cal/(mol K)]        0.000 [J/(mol K)]       0.00000000 [mEh/K]

  Constant pressure heat capacity, Cp
    Electronic Cp           0.000 [cal/(mol K)]        0.000 [J/(mol K)]       0.00000000 [mEh/K]
    Translational Cp        4.968 [cal/(mol K)]       20.786 [J/(mol K)]       0.00791703 [mEh/K]
    Rotational Cp           1.987 [cal/(mol K)]        8.314 [J/(mol K)]       0.00316681 [mEh/K]
    Vibrational Cp          2.791 [cal/(mol K)]       11.679 [J/(mol K)]       0.00444834 [mEh/K]
  Total Cp                  9.747 [cal/(mol K)]       40.780 [J/(mol K)]       0.01553217 [mEh/K]
  Correction Cp             0.000 [cal/(mol K)]        0.000 [J/(mol K)]       0.00000000 [mEh/K]

  ==> Thermochemistry Energy Analysis <==

  Raw electronic energy, E0
  Total E0, Electronic energy at well bottom at 0 [K]                 -511.56676179 [Eh]

  Zero-point energy, ZPE_vib = Sum_i nu_i / 2
    Electronic ZPE          0.000 [kcal/mol]        0.000 [kJ/mol]       0.00000000 [Eh]
    Translational ZPE       0.000 [kcal/mol]        0.000 [kJ/mol]       0.00000000 [Eh]
    Rotational ZPE          0.000 [kcal/mol]        0.000 [kJ/mol]       0.00000000 [Eh]
    Vibrational ZPE         5.922 [kcal/mol]       24.776 [kJ/mol]       0.00943679 [Eh]        2071.136 [cm^-1]
  Correction ZPE            5.922 [kcal/mol]       24.776 [kJ/mol]       0.00943679 [Eh]        2071.136 [cm^-1]
  Total ZPE, Electronic energy at 0 [K]                               -511.55732500 [Eh]

  Thermal Energy, E (includes ZPE)
    Electronic E            0.000 [kcal/mol]        0.000 [kJ/mol]       0.00000000 [Eh]
    Translational E         0.889 [kcal/mol]        3.718 [kJ/mol]       0.00141628 [Eh]
    Rotational E            0.592 [kcal/mol]        2.479 [kJ/mol]       0.00094418 [Eh]
    Vibrational E           6.194 [kcal/mol]       25.916 [kJ/mol]       0.00987094 [Eh]
  Correction E              7.675 [kcal/mol]       32.114 [kJ/mol]       0.01223140 [Eh]
  Total E, Electronic energy at  298.15 [K]                           -511.55453039 [Eh]

  Enthalpy, H_trans = E_trans + k_B * T
    Electronic H            0.000 [kcal/mol]        0.000 [kJ/mol]       0.00000000 [Eh]
    Translational H         1.481 [kcal/mol]        6.197 [kJ/mol]       0.00236046 [Eh]
    Rotational H            0.592 [kcal/mol]        2.479 [kJ/mol]       0.00094418 [Eh]
    Vibrational H           6.194 [kcal/mol]       25.916 [kJ/mol]       0.00987094 [Eh]
  Correction H              8.268 [kcal/mol]       34.592 [kJ/mol]       0.01317558 [Eh]
  Total H, Enthalpy at  298.15 [K]                                    -511.55358621 [Eh]

  Gibbs free energy, G = H - T * S
    Electronic G            0.000 [kcal/mol]        0.000 [kJ/mol]       0.00000000 [Eh]
    Translational G        -9.906 [kcal/mol]      -41.448 [kJ/mol]      -0.01578659 [Eh]
    Rotational G           -4.101 [kcal/mol]      -17.159 [kJ/mol]      -0.00653545 [Eh]
    Vibrational G           5.827 [kcal/mol]       24.382 [kJ/mol]       0.00928662 [Eh]
  Correction G             -8.180 [kcal/mol]      -34.224 [kJ/mol]      -0.01303542 [Eh]
  Total G, Free enthalpy at  298.15 [K]                               -511.57979721 [Eh]

*** Psi4 exiting successfully. Buy a developer a beer!
