                               Psi4 1.3.2 release

  ==> Input File <==

--------------------------------------------------------------------------
memory 144 GB

molecule {
0 1
P 0.0000000000 0.0000000000 -0.0679917919
H 1.1903431933 0.0000000000 0.6964572780
H -0.5951715967 -1.0308674445 0.6964572780
H -0.5951715967 1.0308674445 0.6964572780
}

set dynamic_level 1
set basis aug-cc-pV(Q+d)Z

optimize("wB97M-V")
frequencies("wB97M-V")
--------------------------------------------------------------------------

    Molecular point group: cs
  Charge       = 0
  Multiplicity = 1
  Basis Set: AUG-CC-PV(Q+D)Z
    Blend: AUG-CC-PV(Q+D)Z
  Basis Set: (AUG-CC-PV(Q+D)Z AUX)
    Blend: AUG-CC-PVQZ-JKFIT
  @DF-RKS Final Energy:  -343.12544142982529
    Total Energy =                       -343.1254414298252300
    Molecular point group: cs
  Basis Set: AUG-CC-PV(Q+D)Z
    Blend: AUG-CC-PV(Q+D)Z
  Basis Set: (AUG-CC-PV(Q+D)Z AUX)
    Blend: AUG-CC-PVQZ-JKFIT
  @DF-RKS Final Energy:  -343.12543928394098
    Total Energy =                       -343.1254392839409775
  Basis Set: AUG-CC-PV(Q+D)Z
    Blend: AUG-CC-PV(Q+D)Z
  Basis Set: (AUG-CC-PV(Q+D)Z AUX)
    Blend: AUG-CC-PVQZ-JKFIT
  @DF-RKS Final Energy:  -343.12543955660095
    Total Energy =                       -343.1254395566009521
  Basis Set: AUG-CC-PV(Q+D)Z
    Blend: AUG-CC-PV(Q+D)Z
  Basis Set: (AUG-CC-PV(Q+D)Z AUX)
    Blend: AUG-CC-PVQZ-JKFIT
  @DF-RKS Final Energy:  -343.12544250951981
    Total Energy =                       -343.1254425095198144
  @DF-RKS Final Energy:  -343.12543814156902
    Total Energy =                       -343.1254381415689636
  @DF-RKS Final Energy:  -343.12544644202842
    Total Energy =                       -343.1254464420284762
  @DF-RKS Final Energy:  -343.12543289280632
    Total Energy =                       -343.1254328928063160
  @DF-RKS Final Energy:  -343.12544646089543
    Total Energy =                       -343.1254464608953754
  @DF-RKS Final Energy:  -343.12543287353105
    Total Energy =                       -343.1254328735310537
  @DF-RKS Final Energy:  -343.12545422179375
    Total Energy =                       -343.1254542217937455
  @DF-RKS Final Energy:  -343.12545222960244
    Total Energy =                       -343.1254522296025016
  @DF-RKS Final Energy:  -343.12545213494712
    Total Energy =                       -343.1254521349471247
  @DF-RKS Final Energy:  -343.12545249677561
    Total Energy =                       -343.1254524967756083
  @DF-RKS Final Energy:  -343.12545370501311
    Total Energy =                       -343.1254537050130580
  @DF-RKS Final Energy:  -343.12545180216631
    Total Energy =                       -343.1254518021663671
  @DF-RKS Final Energy:  -343.12545308694189
    Total Energy =                       -343.1254530869418318
  @DF-RKS Final Energy:  -343.12545179611345
    Total Energy =                       -343.1254517961134525
  @DF-RKS Final Energy:  -343.12545308756773
    Total Energy =                       -343.1254530875677347
  **** Optimization is complete! (in 2 steps) ****
    Final optimized geometry and variables:
  @DF-RKS Final Energy:  -343.12545422457691
    Total Energy =                       -343.1254542245769130
  @DF-RKS Final Energy:  -343.12545223369426
    Total Energy =                       -343.1254522336942614
  @DF-RKS Final Energy:  -343.12545179818403
    Total Energy =                       -343.1254517981840308
  @DF-RKS Final Energy:  -343.12545308773491
    Total Energy =                       -343.1254530877349112
  @DF-RKS Final Energy:  -343.12545179782074
    Total Energy =                       -343.1254517978206877
  @DF-RKS Final Energy:  -343.12545308502968
    Total Energy =                       -343.1254530850296192
  @DF-RKS Final Energy:  -343.12545162180271
    Total Energy =                       -343.1254516218027106
  @DF-RKS Final Energy:  -343.12545049902599
    Total Energy =                       -343.1254504990259306
  @DF-RKS Final Energy:  -343.12544955176583
    Total Energy =                       -343.1254495517658256
  @DF-RKS Final Energy:  -343.12544830709879
    Total Energy =                       -343.1254483070987362
  @DF-RKS Final Energy:  -343.12545111440727
    Total Energy =                       -343.1254511144073263
  @DF-RKS Final Energy:  -343.12544860250182
    Total Energy =                       -343.1254486025017627
  @DF-RKS Final Energy:  -343.12545249023844
    Total Energy =                       -343.1254524902385015
  @DF-RKS Final Energy:  -343.12545130165324
    Total Energy =                       -343.1254513016532428
  @DF-RKS Final Energy:  -343.12545111467784
    Total Energy =                       -343.1254511146778441
  @DF-RKS Final Energy:  -343.12544859792649
    Total Energy =                       -343.1254485979265496
  @DF-RKS Final Energy:  -343.12545116886133
    Total Energy =                       -343.1254511688612752
  @DF-RKS Final Energy:  -343.12544858168980
    Total Energy =                       -343.1254485816898523
  Basis Set: AUG-CC-PV(Q+D)Z
    Blend: AUG-CC-PV(Q+D)Z
  Basis Set: (AUG-CC-PV(Q+D)Z AUX)
    Blend: AUG-CC-PVQZ-JKFIT
  @DF-RKS Final Energy:  -343.12545217170543
    Total Energy =                       -343.1254521717054331
  Basis Set: AUG-CC-PV(Q+D)Z
    Blend: AUG-CC-PV(Q+D)Z
  Basis Set: (AUG-CC-PV(Q+D)Z AUX)
    Blend: AUG-CC-PVQZ-JKFIT
  @DF-RKS Final Energy:  -343.12545107060265
    Total Energy =                       -343.1254510706027077
  Multiplicity = 1
  Basis Set: AUG-CC-PV(Q+D)Z
    Blend: AUG-CC-PV(Q+D)Z
  Basis Set: (AUG-CC-PV(Q+D)Z AUX)
    Blend: AUG-CC-PVQZ-JKFIT
  @DF-RKS Final Energy:  -343.12545111418325
    Total Energy =                       -343.1254511141833063
    Molecular point group: c1

    Geometry (in Angstrom), charge = 0, multiplicity = 1:

       Center              X                  Y                   Z               Mass
    ------------   -----------------  -----------------  -----------------  -----------------
         P            0.000007990970     0.068232961764    -0.000106768788    30.973761998420
         H            0.591265910138    -0.700219178309     1.026951138461     1.007825032230
         H            0.593901501055    -0.697766802654    -1.026285197523     1.007825032230
         H           -1.185412999863    -0.699036270457     0.002615413401     1.007825032230

  Charge       = 0
  Multiplicity = 1
  Basis Set: AUG-CC-PV(Q+D)Z
    Blend: AUG-CC-PV(Q+D)Z
  Basis Set: (AUG-CC-PV(Q+D)Z AUX)
    Blend: AUG-CC-PVQZ-JKFIT

    Orbital Energies [Eh]
    ---------------------

    Doubly Occupied:

       1A    -77.386345     2A     -6.722436     3A     -4.835101
       4A     -4.835099     5A     -4.831499     6A     -0.762861
       7A     -0.480974     8A     -0.480298     9A     -0.370619

  @DF-RKS Final Energy:  -343.12545111397640

   => Energetics <=

    Nuclear Repulsion Energy =             17.6377079121213427
    One-Electron Energy =                -508.6395885365886897
    Two-Electron Energy =                 166.2017727336665587
    DFT Exchange-Correlation Energy =     -18.4007017772285479
    Empirical Dispersion Energy =           0.0000000000000000
    VV10 Nonlocal Energy =                  0.0753585540528966
    Total Energy =                       -343.1254511139763963

  Dipole Moment: [D]
     X:     0.0001      Y:    -0.5659      Z:    -0.0027     Total:     0.5659

  Vibration                       7                   8                   9
  Freq [cm^-1]                1015.8977           1141.3228           1732.2492
  Irrep                           Ap                  Ap                 App
  Reduced mass [u]              1.0750              1.0255              1.0452
  Force const [mDyne/A]         0.6537              0.7870              1.8478

  Vibration                       10                  11                  12
  Freq [cm^-1]                2435.5132           2439.7183           2829.5624
  Irrep                           Ap                  Ap                 App
  Reduced mass [u]              1.0346              1.0382              1.0212
  Force const [mDyne/A]         3.6158              3.6408              4.8170

  ==> Thermochemistry Components <==

  Entropy, S
    Electronic S            0.000 [cal/(mol K)]        0.000 [J/(mol K)]       0.00000000 [mEh/K] (multiplicity = 1)
    Translational S        36.502 [cal/(mol K)]      152.724 [J/(mol K)]       0.05816968 [mEh/K] (mol. weight = 33.9972 [u], P = 101325.00 [Pa])
    Rotational S           15.659 [cal/(mol K)]       65.516 [J/(mol K)]       0.02495366 [mEh/K] (symmetry no. = 1)
    Vibrational S           0.145 [cal/(mol K)]        0.607 [J/(mol K)]       0.00023133 [mEh/K]
  Total S                  52.306 [cal/(mol K)]      218.848 [J/(mol K)]       0.08335467 [mEh/K]
  Correction S              0.000 [cal/(mol K)]        0.000 [J/(mol K)]       0.00000000 [mEh/K]

  Constant volume heat capacity, Cv
    Electronic Cv           0.000 [cal/(mol K)]        0.000 [J/(mol K)]       0.00000000 [mEh/K]
    Translational Cv        2.981 [cal/(mol K)]       12.472 [J/(mol K)]       0.00475022 [mEh/K]
    Rotational Cv           2.981 [cal/(mol K)]       12.472 [J/(mol K)]       0.00475022 [mEh/K]
    Vibrational Cv          0.644 [cal/(mol K)]        2.694 [J/(mol K)]       0.00102603 [mEh/K]
  Total Cv                  6.605 [cal/(mol K)]       27.637 [J/(mol K)]       0.01052647 [mEh/K]
  Correction Cv             0.000 [cal/(mol K)]        0.000 [J/(mol K)]       0.00000000 [mEh/K]

  Constant pressure heat capacity, Cp
    Electronic Cp           0.000 [cal/(mol K)]        0.000 [J/(mol K)]       0.00000000 [mEh/K]
    Translational Cp        4.968 [cal/(mol K)]       20.786 [J/(mol K)]       0.00791703 [mEh/K]
    Rotational Cp           2.981 [cal/(mol K)]       12.472 [J/(mol K)]       0.00475022 [mEh/K]
    Vibrational Cp          0.644 [cal/(mol K)]        2.694 [J/(mol K)]       0.00102603 [mEh/K]
  Total Cp                  8.593 [cal/(mol K)]       35.952 [J/(mol K)]       0.01369328 [mEh/K]
  Correction Cp             0.000 [cal/(mol K)]        0.000 [J/(mol K)]       0.00000000 [mEh/K]

  ==> Thermochemistry Energy Analysis <==

  Raw electronic energy, E0
  Total E0, Electronic energy at well bottom at 0 [K]                 -343.12545422 [Eh]

  Zero-point energy, ZPE_vib = Sum_i nu_i / 2
    Electronic ZPE          0.000 [kcal/mol]        0.000 [kJ/mol]       0.00000000 [Eh]
    Translational ZPE       0.000 [kcal/mol]        0.000 [kJ/mol]       0.00000000 [Eh]
    Rotational ZPE          0.000 [kcal/mol]        0.000 [kJ/mol]       0.00000000 [Eh]
    Vibrational ZPE        16.575 [kcal/mol]       69.349 [kJ/mol]       0.02641368 [Eh]        5797.132 [cm^-1]
  Correction ZPE           16.575 [kcal/mol]       69.349 [kJ/mol]       0.02641368 [Eh]        5797.132 [cm^-1]
  Total ZPE, Electronic energy at 0 [K]                               -343.09904055 [Eh]

  Thermal Energy, E (includes ZPE)
    Electronic E            0.000 [kcal/mol]        0.000 [kJ/mol]       0.00000000 [Eh]
    Translational E         0.889 [kcal/mol]        3.718 [kJ/mol]       0.00141628 [Eh]
    Rotational E            0.889 [kcal/mol]        3.718 [kJ/mol]       0.00141628 [Eh]
    Vibrational E          16.611 [kcal/mol]       69.501 [kJ/mol]       0.02647153 [Eh]
  Correction E             18.389 [kcal/mol]       76.938 [kJ/mol]       0.02930409 [Eh]
  Total E, Electronic energy at  298.15 [K]                           -343.09615014 [Eh]

  Enthalpy, H_trans = E_trans + k_B * T
    Electronic H            0.000 [kcal/mol]        0.000 [kJ/mol]       0.00000000 [Eh]
    Translational H         1.481 [kcal/mol]        6.197 [kJ/mol]       0.00236046 [Eh]
    Rotational H            0.889 [kcal/mol]        3.718 [kJ/mol]       0.00141628 [Eh]
    Vibrational H          16.611 [kcal/mol]       69.501 [kJ/mol]       0.02647153 [Eh]
  Correction H             18.981 [kcal/mol]       79.417 [kJ/mol]       0.03024827 [Eh]
  Total H, Enthalpy at  298.15 [K]                                    -343.09520595 [Eh]

  Gibbs free energy, G = H - T * S
    Electronic G            0.000 [kcal/mol]        0.000 [kJ/mol]       0.00000000 [Eh]
    Translational G        -9.402 [kcal/mol]      -39.337 [kJ/mol]      -0.01498283 [Eh]
    Rotational G           -3.780 [kcal/mol]      -15.815 [kJ/mol]      -0.00602366 [Eh]
    Vibrational G          16.568 [kcal/mol]       69.320 [kJ/mol]       0.02640256 [Eh]
  Correction G              3.386 [kcal/mol]       14.167 [kJ/mol]       0.00539608 [Eh]
  Total G, Free enthalpy at  298.15 [K]                               -343.12005815 [Eh]

*** Psi4 exiting successfully. Buy a developer a beer!
