                               Psi4 1.3.2 release

  ==> Input File <==

--------------------------------------------------------------------------
memory 144 GB

molecule {
0 1
Si 0.0000000000 0.0000000000 0.0000000000
O 0.0000000000 0.0000000000 1.5170406700
}

set dynamic_level 1
set basis aug-cc-pV(Q+d)Z

optimize("wB97M-V")
frequencies("wB97M-V")
--------------------------------------------------------------------------

    Molecular point group: c2v
  Charge       = 0
  Multiplicity = 1
  Basis Set: AUG-CC-PV(Q+D)Z
    Blend: AUG-CC-PV(Q+D)Z
  Basis Set: (AUG-CC-PV(Q+D)Z AUX)
    Blend: AUG-CC-PVQZ-JKFIT
  @DF-RKS Final Energy:  -364.74807075847747
    Total Energy =                       -364.7480707584774677
    Molecular point group: c2v
  Basis Set: AUG-CC-PV(Q+D)Z
    Blend: AUG-CC-PV(Q+D)Z
  Basis Set: (AUG-CC-PV(Q+D)Z AUX)
    Blend: AUG-CC-PVQZ-JKFIT
  @DF-RKS Final Energy:  -364.74804812353261
    Total Energy =                       -364.7480481235326124
  Basis Set: AUG-CC-PV(Q+D)Z
    Blend: AUG-CC-PV(Q+D)Z
  Basis Set: (AUG-CC-PV(Q+D)Z AUX)
    Blend: AUG-CC-PVQZ-JKFIT
  @DF-RKS Final Energy:  -364.74809192570666
    Total Energy =                       -364.7480919257066603
  Basis Set: AUG-CC-PV(Q+D)Z
    Blend: AUG-CC-PV(Q+D)Z
  Basis Set: (AUG-CC-PV(Q+D)Z AUX)
    Blend: AUG-CC-PVQZ-JKFIT
  @DF-RKS Final Energy:  -364.74822774623118
    Total Energy =                       -364.7482277462311799
  @DF-RKS Final Energy:  -364.74822394060658
    Total Energy =                       -364.7482239406065787
  @DF-RKS Final Energy:  -364.74823000078203
    Total Energy =                       -364.7482300007820299
  @DF-RKS Final Energy:  -364.74823069070123
    Total Energy =                       -364.7482306907012344
  @DF-RKS Final Energy:  -364.74823001043956
    Total Energy =                       -364.7482300104395563
  @DF-RKS Final Energy:  -364.74822980000391
    Total Energy =                       -364.7482298000039123
  **** Optimization is complete! (in 3 steps) ****
    Final optimized geometry and variables:
  @DF-RKS Final Energy:  -364.74823069070095
    Total Energy =                       -364.7482306907009502
  @DF-RKS Final Energy:  -364.74823000889870
    Total Energy =                       -364.7482300088987017
  Basis Set: AUG-CC-PV(Q+D)Z
    Blend: AUG-CC-PV(Q+D)Z
  Basis Set: (AUG-CC-PV(Q+D)Z AUX)
    Blend: AUG-CC-PVQZ-JKFIT
  @DF-RKS Final Energy:  -364.74822980101186
    Total Energy =                       -364.7482298010118598
  Basis Set: AUG-CC-PV(Q+D)Z
    Blend: AUG-CC-PV(Q+D)Z
  Basis Set: (AUG-CC-PV(Q+D)Z AUX)
    Blend: AUG-CC-PVQZ-JKFIT
  @DF-RKS Final Energy:  -364.74823069070101
    Total Energy =                       -364.7482306907010070
  Multiplicity = 1
  Basis Set: AUG-CC-PV(Q+D)Z
    Blend: AUG-CC-PV(Q+D)Z
  Basis Set: (AUG-CC-PV(Q+D)Z AUX)
    Blend: AUG-CC-PVQZ-JKFIT
  @DF-RKS Final Energy:  -364.74823000889921
    Total Energy =                       -364.7482300088992702
    Molecular point group: c2v

    Geometry (in Angstrom), charge = 0, multiplicity = 1:

       Center              X                  Y                   Z               Mass
    ------------   -----------------  -----------------  -----------------  -----------------
         SI           0.000000000000     0.000000000000    -0.547150775304    27.976926534650
         O            0.000000000000     0.000000000000     0.957028993785    15.994914619570

  Charge       = 0
  Multiplicity = 1
  Basis Set: AUG-CC-PV(Q+D)Z
    Blend: AUG-CC-PV(Q+D)Z
  Basis Set: (AUG-CC-PV(Q+D)Z AUX)
    Blend: AUG-CC-PVQZ-JKFIT

    Orbital Energies [Eh]
    ---------------------

    Doubly Occupied:

       1A1   -66.455020     2A1   -19.312910     3A1    -5.476334
       1B2    -3.792011     1B1    -3.792011     4A1    -3.785320
       5A1    -1.067659     6A1    -0.544021     2B2    -0.436471
       2B1    -0.436471     7A1    -0.406764

  @DF-RKS Final Energy:  -364.74822980101146

   => Energetics <=

    Nuclear Repulsion Energy =             39.4021039326603884
    One-Electron Energy =                -583.3364096059335679
    Two-Electron Energy =                 201.3541781718839729
    DFT Exchange-Correlation Energy =     -22.2610715488763233
    Empirical Dispersion Energy =           0.0000000000000000
    VV10 Nonlocal Energy =                  0.0929692492541078
    Total Energy =                       -364.7482298010114619

  Dipole Moment: [D]
     X:     0.0000      Y:     0.0000      Z:    -3.3177     Total:     3.3177

  Vibration                       6
  Freq [cm^-1]                1288.8141
  Irrep                           A1
  Reduced mass [u]             18.9466
  Force const [mDyne/A]        18.5422

  ==> Thermochemistry Components <==

  Entropy, S
    Electronic S            0.000 [cal/(mol K)]        0.000 [J/(mol K)]       0.00000000 [mEh/K] (multiplicity = 1)
    Translational S        37.269 [cal/(mol K)]      155.933 [J/(mol K)]       0.05939177 [mEh/K] (mol. weight = 43.9718 [u], P = 101325.00 [Pa])
    Rotational S           13.208 [cal/(mol K)]       55.264 [J/(mol K)]       0.02104884 [mEh/K] (symmetry no. = 1)
    Vibrational S           0.029 [cal/(mol K)]        0.120 [J/(mol K)]       0.00004559 [mEh/K]
  Total S                  50.506 [cal/(mol K)]      211.316 [J/(mol K)]       0.08048620 [mEh/K]
  Correction S              0.000 [cal/(mol K)]        0.000 [J/(mol K)]       0.00000000 [mEh/K]

  Constant volume heat capacity, Cv
    Electronic Cv           0.000 [cal/(mol K)]        0.000 [J/(mol K)]       0.00000000 [mEh/K]
    Translational Cv        2.981 [cal/(mol K)]       12.472 [J/(mol K)]       0.00475022 [mEh/K]
    Rotational Cv           1.987 [cal/(mol K)]        8.314 [J/(mol K)]       0.00316681 [mEh/K]
    Vibrational Cv          0.154 [cal/(mol K)]        0.643 [J/(mol K)]       0.00024479 [mEh/K]
  Total Cv                  5.122 [cal/(mol K)]       21.429 [J/(mol K)]       0.00816182 [mEh/K]
  Correction Cv             0.000 [cal/(mol K)]        0.000 [J/(mol K)]       0.00000000 [mEh/K]

  Constant pressure heat capacity, Cp
    Electronic Cp           0.000 [cal/(mol K)]        0.000 [J/(mol K)]       0.00000000 [mEh/K]
    Translational Cp        4.968 [cal/(mol K)]       20.786 [J/(mol K)]       0.00791703 [mEh/K]
    Rotational Cp           1.987 [cal/(mol K)]        8.314 [J/(mol K)]       0.00316681 [mEh/K]
    Vibrational Cp          0.154 [cal/(mol K)]        0.643 [J/(mol K)]       0.00024479 [mEh/K]
  Total Cp                  7.109 [cal/(mol K)]       29.743 [J/(mol K)]       0.01132863 [mEh/K]
  Correction Cp             0.000 [cal/(mol K)]        0.000 [J/(mol K)]       0.00000000 [mEh/K]

  ==> Thermochemistry Energy Analysis <==

  Raw electronic energy, E0
  Total E0, Electronic energy at well bottom at 0 [K]                 -364.74823069 [Eh]

  Zero-point energy, ZPE_vib = Sum_i nu_i / 2
    Electronic ZPE          0.000 [kcal/mol]        0.000 [kJ/mol]       0.00000000 [Eh]
    Translational ZPE       0.000 [kcal/mol]        0.000 [kJ/mol]       0.00000000 [Eh]
    Rotational ZPE          0.000 [kcal/mol]        0.000 [kJ/mol]       0.00000000 [Eh]
    Vibrational ZPE         1.842 [kcal/mol]        7.709 [kJ/mol]       0.00293613 [Eh]         644.407 [cm^-1]
  Correction ZPE            1.842 [kcal/mol]        7.709 [kJ/mol]       0.00293613 [Eh]         644.407 [cm^-1]
  Total ZPE, Electronic energy at 0 [K]                               -364.74529456 [Eh]

  Thermal Energy, E (includes ZPE)
    Electronic E            0.000 [kcal/mol]        0.000 [kJ/mol]       0.00000000 [Eh]
    Translational E         0.889 [kcal/mol]        3.718 [kJ/mol]       0.00141628 [Eh]
    Rotational E            0.592 [kcal/mol]        2.479 [kJ/mol]       0.00094418 [Eh]
    Vibrational E           1.850 [kcal/mol]        7.740 [kJ/mol]       0.00294785 [Eh]
  Correction E              3.331 [kcal/mol]       13.937 [kJ/mol]       0.00530831 [Eh]
  Total E, Electronic energy at  298.15 [K]                           -364.74292238 [Eh]

  Enthalpy, H_trans = E_trans + k_B * T
    Electronic H            0.000 [kcal/mol]        0.000 [kJ/mol]       0.00000000 [Eh]
    Translational H         1.481 [kcal/mol]        6.197 [kJ/mol]       0.00236046 [Eh]
    Rotational H            0.592 [kcal/mol]        2.479 [kJ/mol]       0.00094418 [Eh]
    Vibrational H           1.850 [kcal/mol]        7.740 [kJ/mol]       0.00294785 [Eh]
  Correction H              3.923 [kcal/mol]       16.416 [kJ/mol]       0.00625249 [Eh]
  Total H, Enthalpy at  298.15 [K]                                    -364.74197820 [Eh]

  Gibbs free energy, G = H - T * S
    Electronic G            0.000 [kcal/mol]        0.000 [kJ/mol]       0.00000000 [Eh]
    Translational G        -9.631 [kcal/mol]      -40.294 [kJ/mol]      -0.01534720 [Eh]
    Rotational G           -3.346 [kcal/mol]      -13.998 [kJ/mol]      -0.00533153 [Eh]
    Vibrational G           1.841 [kcal/mol]        7.704 [kJ/mol]       0.00293425 [Eh]
  Correction G            -11.135 [kcal/mol]      -46.588 [kJ/mol]      -0.01774447 [Eh]
  Total G, Free enthalpy at  298.15 [K]                               -364.76597516 [Eh]

*** Psi4 exiting successfully. Buy a developer a beer!
