                               Psi4 1.3.2 release

  ==> Input File <==

--------------------------------------------------------------------------
memory 144 GB

molecule {
0 1
S 0.0000000000 0.0000000000 0.0000000000
O 0.0000000000 0.0000000000 1.4355085900
O 1.2508167239 0.0000000000 -0.7043737894
}

set dynamic_level 1
set basis aug-cc-pV(Q+d)Z

optimize("wB97M-V")
frequencies("wB97M-V")
--------------------------------------------------------------------------

    Molecular point group: c2v
  Charge       = 0
  Multiplicity = 1
  Basis Set: AUG-CC-PV(Q+D)Z
    Blend: AUG-CC-PV(Q+D)Z
  Basis Set: (AUG-CC-PV(Q+D)Z AUX)
    Blend: AUG-CC-PVQZ-JKFIT
  @DF-RKS Final Energy:  -548.67425737310032
    Total Energy =                       -548.6742573731003176
    Molecular point group: c2v
  Basis Set: AUG-CC-PV(Q+D)Z
    Blend: AUG-CC-PV(Q+D)Z
  Basis Set: (AUG-CC-PV(Q+D)Z AUX)
    Blend: AUG-CC-PVQZ-JKFIT
  @DF-RKS Final Energy:  -548.67424235271608
    Total Energy =                       -548.6742423527160781
  Basis Set: AUG-CC-PV(Q+D)Z
    Blend: AUG-CC-PV(Q+D)Z
  Basis Set: (AUG-CC-PV(Q+D)Z AUX)
    Blend: AUG-CC-PVQZ-JKFIT
  @DF-RKS Final Energy:  -548.67427164713843
    Total Energy =                       -548.6742716471384256
  Basis Set: AUG-CC-PV(Q+D)Z
    Blend: AUG-CC-PV(Q+D)Z
  Basis Set: (AUG-CC-PV(Q+D)Z AUX)
    Blend: AUG-CC-PVQZ-JKFIT
  @DF-RKS Final Energy:  -548.67427866742696
    Total Energy =                       -548.6742786674269610
  @DF-RKS Final Energy:  -548.67423519412500
    Total Energy =                       -548.6742351941250035
  @DF-RKS Final Energy:  -548.67449069864836
    Total Energy =                       -548.6744906986482420
  @DF-RKS Final Energy:  -548.67448341981276
    Total Energy =                       -548.6744834198127592
  @DF-RKS Final Energy:  -548.67449719680121
    Total Energy =                       -548.6744971968012123
  @DF-RKS Final Energy:  -548.67449507168419
    Total Energy =                       -548.6744950716843050
  @DF-RKS Final Energy:  -548.67448538929796
    Total Energy =                       -548.6744853892978426
  @DF-RKS Final Energy:  -548.67451907034911
    Total Energy =                       -548.6745190703489925
  @DF-RKS Final Energy:  -548.67452040072794
    Total Energy =                       -548.6745204007280563
  @DF-RKS Final Energy:  -548.67451697177205
    Total Energy =                       -548.6745169717720501
  @DF-RKS Final Energy:  -548.67451797156548
    Total Energy =                       -548.6745179715653649
  @DF-RKS Final Energy:  -548.67451922445912
    Total Energy =                       -548.6745192244591180
  @DF-RKS Final Energy:  -548.67452140944886
    Total Energy =                       -548.6745214094488574
  @DF-RKS Final Energy:  -548.67452096800844
    Total Energy =                       -548.6745209680084372
  @DF-RKS Final Energy:  -548.67452106807775
    Total Energy =                       -548.6745210680777518
  @DF-RKS Final Energy:  -548.67452095813110
    Total Energy =                       -548.6745209581312110
  @DF-RKS Final Energy:  -548.67452092010433
    Total Energy =                       -548.6745209201041007
  **** Optimization is complete! (in 4 steps) ****
    Final optimized geometry and variables:
  @DF-RKS Final Energy:  -548.67452140944943
    Total Energy =                       -548.6745214094493122
  @DF-RKS Final Energy:  -548.67452096801094
    Total Energy =                       -548.6745209680110520
  @DF-RKS Final Energy:  -548.67452106807980
    Total Energy =                       -548.6745210680799119
  @DF-RKS Final Energy:  -548.67452095813121
    Total Energy =                       -548.6745209581313247
  @DF-RKS Final Energy:  -548.67452092010524
    Total Energy =                       -548.6745209201052376
  @DF-RKS Final Energy:  -548.67452140944931
    Total Energy =                       -548.6745214094493122
  @DF-RKS Final Energy:  -548.67452096801071
    Total Energy =                       -548.6745209680107109
  @DF-RKS Final Energy:  -548.67452106807968
    Total Energy =                       -548.6745210680797982
  @DF-RKS Final Energy:  -548.67452095813201
    Total Energy =                       -548.6745209581321205
  Basis Set: AUG-CC-PV(Q+D)Z
    Blend: AUG-CC-PV(Q+D)Z
  Basis Set: (AUG-CC-PV(Q+D)Z AUX)
    Blend: AUG-CC-PVQZ-JKFIT
  @DF-RKS Final Energy:  -548.67452092010512
    Total Energy =                       -548.6745209201052376
  Basis Set: AUG-CC-PV(Q+D)Z
    Blend: AUG-CC-PV(Q+D)Z
  Basis Set: (AUG-CC-PV(Q+D)Z AUX)
    Blend: AUG-CC-PVQZ-JKFIT
  @DF-RKS Final Energy:  -548.67452116511868
    Total Energy =                       -548.6745211651187901
  Multiplicity = 1
  Basis Set: AUG-CC-PV(Q+D)Z
    Blend: AUG-CC-PV(Q+D)Z
  Basis Set: (AUG-CC-PV(Q+D)Z AUX)
    Blend: AUG-CC-PVQZ-JKFIT
  @DF-RKS Final Energy:  -548.67452110975864
    Total Energy =                       -548.6745211097586434
    Molecular point group: cs

    Geometry (in Angstrom), charge = 0, multiplicity = 1:

       Center              X                  Y                   Z               Mass
    ------------   -----------------  -----------------  -----------------  -----------------
         S            0.000000000000    -0.000305587478    -0.361317012387    31.972071174400
         O            0.000000000000     1.229336019602     0.361295966457    15.994914619570
         O            0.000000000000    -1.228725183918     0.360936912638    15.994914619570

  Charge       = 0
  Multiplicity = 1
  Basis Set: AUG-CC-PV(Q+D)Z
    Blend: AUG-CC-PV(Q+D)Z
  Basis Set: (AUG-CC-PV(Q+D)Z AUX)
    Blend: AUG-CC-PVQZ-JKFIT

    Orbital Energies [Eh]
    ---------------------

    Doubly Occupied:

       1Ap   -89.389939     2Ap   -19.392278     3Ap   -19.392104
       4Ap    -8.284181     1App   -6.195505     5Ap    -6.192180
       6Ap    -6.189100     7Ap    -1.285704     8Ap    -1.190476
       9Ap    -0.757611    10Ap    -0.613474     2App   -0.613316
      11Ap    -0.609560     3App   -0.484346    12Ap    -0.474134
      13Ap    -0.442194

  @DF-RKS Final Energy:  -548.67452043565220

   => Energetics <=

    Nuclear Repulsion Energy =            108.8021724109321866
    One-Electron Energy =                -971.6515069947588472
    Two-Electron Energy =                 346.4339519472753750
    DFT Exchange-Correlation Energy =     -32.3916672256877121
    Empirical Dispersion Energy =           0.0000000000000000
    VV10 Nonlocal Energy =                  0.1325294265869296
    Total Energy =                       -548.6745204356520844

  Dipole Moment: [D]
     X:     0.0000      Y:    -0.0064      Z:    -1.7218     Total:     1.7218

  Vibration                       7                   8                   9
  Freq [cm^-1]                 530.9925           1240.8575           1434.7740
  Irrep                           A1                  A1                  B2
  Reduced mass [u]             18.6322             17.9393             20.3271
  Force const [mDyne/A]         3.0952             16.2742             24.6542

  ==> Thermochemistry Components <==

  Entropy, S
    Electronic S            0.000 [cal/(mol K)]        0.000 [J/(mol K)]       0.00000000 [mEh/K] (multiplicity = 1)
    Translational S        38.386 [cal/(mol K)]      160.607 [J/(mol K)]       0.06117186 [mEh/K] (mol. weight = 63.9619 [u], P = 101325.00 [Pa])
    Rotational S           20.192 [cal/(mol K)]       84.484 [J/(mol K)]       0.03217832 [mEh/K] (symmetry no. = 2)
    Vibrational S           0.635 [cal/(mol K)]        2.659 [J/(mol K)]       0.00101261 [mEh/K]
  Total S                  59.214 [cal/(mol K)]      247.749 [J/(mol K)]       0.09436278 [mEh/K]
  Correction S              0.000 [cal/(mol K)]        0.000 [J/(mol K)]       0.00000000 [mEh/K]

  Constant volume heat capacity, Cv
    Electronic Cv           0.000 [cal/(mol K)]        0.000 [J/(mol K)]       0.00000000 [mEh/K]
    Translational Cv        2.981 [cal/(mol K)]       12.472 [J/(mol K)]       0.00475022 [mEh/K]
    Rotational Cv           2.981 [cal/(mol K)]       12.472 [J/(mol K)]       0.00475022 [mEh/K]
    Vibrational Cv          1.455 [cal/(mol K)]        6.088 [J/(mol K)]       0.00231872 [mEh/K]
  Total Cv                  7.417 [cal/(mol K)]       31.031 [J/(mol K)]       0.01181916 [mEh/K]
  Correction Cv             0.000 [cal/(mol K)]        0.000 [J/(mol K)]       0.00000000 [mEh/K]

  Constant pressure heat capacity, Cp
    Electronic Cp           0.000 [cal/(mol K)]        0.000 [J/(mol K)]       0.00000000 [mEh/K]
    Translational Cp        4.968 [cal/(mol K)]       20.786 [J/(mol K)]       0.00791703 [mEh/K]
    Rotational Cp           2.981 [cal/(mol K)]       12.472 [J/(mol K)]       0.00475022 [mEh/K]
    Vibrational Cp          1.455 [cal/(mol K)]        6.088 [J/(mol K)]       0.00231872 [mEh/K]
  Total Cp                  9.404 [cal/(mol K)]       39.346 [J/(mol K)]       0.01498597 [mEh/K]
  Correction Cp             0.000 [cal/(mol K)]        0.000 [J/(mol K)]       0.00000000 [mEh/K]

  ==> Thermochemistry Energy Analysis <==

  Raw electronic energy, E0
  Total E0, Electronic energy at well bottom at 0 [K]                 -548.67452141 [Eh]

  Zero-point energy, ZPE_vib = Sum_i nu_i / 2
    Electronic ZPE          0.000 [kcal/mol]        0.000 [kJ/mol]       0.00000000 [Eh]
    Translational ZPE       0.000 [kcal/mol]        0.000 [kJ/mol]       0.00000000 [Eh]
    Rotational ZPE          0.000 [kcal/mol]        0.000 [kJ/mol]       0.00000000 [Eh]
    Vibrational ZPE         4.584 [kcal/mol]       19.180 [kJ/mol]       0.00730523 [Eh]        1603.312 [cm^-1]
  Correction ZPE            4.584 [kcal/mol]       19.180 [kJ/mol]       0.00730523 [Eh]        1603.312 [cm^-1]
  Total ZPE, Electronic energy at 0 [K]                               -548.66721618 [Eh]

  Thermal Energy, E (includes ZPE)
    Electronic E            0.000 [kcal/mol]        0.000 [kJ/mol]       0.00000000 [Eh]
    Translational E         0.889 [kcal/mol]        3.718 [kJ/mol]       0.00141628 [Eh]
    Rotational E            0.889 [kcal/mol]        3.718 [kJ/mol]       0.00141628 [Eh]
    Vibrational E           4.724 [kcal/mol]       19.765 [kJ/mol]       0.00752806 [Eh]
  Correction E              6.501 [kcal/mol]       27.202 [kJ/mol]       0.01036061 [Eh]
  Total E, Electronic energy at  298.15 [K]                           -548.66416080 [Eh]

  Enthalpy, H_trans = E_trans + k_B * T
    Electronic H            0.000 [kcal/mol]        0.000 [kJ/mol]       0.00000000 [Eh]
    Translational H         1.481 [kcal/mol]        6.197 [kJ/mol]       0.00236046 [Eh]
    Rotational H            0.889 [kcal/mol]        3.718 [kJ/mol]       0.00141628 [Eh]
    Vibrational H           4.724 [kcal/mol]       19.765 [kJ/mol]       0.00752806 [Eh]
  Correction H              7.094 [kcal/mol]       29.681 [kJ/mol]       0.01130480 [Eh]
  Total H, Enthalpy at  298.15 [K]                                    -548.66321661 [Eh]

  Gibbs free energy, G = H - T * S
    Electronic G            0.000 [kcal/mol]        0.000 [kJ/mol]       0.00000000 [Eh]
    Translational G        -9.964 [kcal/mol]      -41.687 [kJ/mol]      -0.01587793 [Eh]
    Rotational G           -5.132 [kcal/mol]      -21.471 [kJ/mol]      -0.00817769 [Eh]
    Vibrational G           4.534 [kcal/mol]       18.972 [kJ/mol]       0.00722615 [Eh]
  Correction G            -10.561 [kcal/mol]      -44.186 [kJ/mol]      -0.01682947 [Eh]
  Total G, Free enthalpy at  298.15 [K]                               -548.69135088 [Eh]

*** Psi4 exiting successfully. Buy a developer a beer!
