                               Psi4 1.3.2 release

  ==> Input File <==

--------------------------------------------------------------------------
memory 144 GB

molecule {
0 1
C -0.0479167327 0.6682939561 0.0000000000
H -1.0907101856 0.9776732069 0.0000000000
H 0.4344161461 1.0815239129 0.8898543791
H 0.4344161461 1.0815239129 -0.8898543791
O -0.0410920225 -0.7509554452 0.0000000000
H 0.8712936485 -1.0420305436 0.0000000000
}

set dynamic_level 1
set basis aug-cc-pV(Q+d)Z

optimize("wB97M-V")
frequencies("wB97M-V")
--------------------------------------------------------------------------

    Molecular point group: cs
  Charge       = 0
  Multiplicity = 1
  Basis Set: AUG-CC-PV(Q+D)Z
    Blend: AUG-CC-PV(Q+D)Z
  Basis Set: (AUG-CC-PV(Q+D)Z AUX)
    Blend: AUG-CC-PVQZ-JKFIT
  @DF-RKS Final Energy:  -115.72418847822597
    Total Energy =                       -115.7241884782259689
    Molecular point group: cs
  Basis Set: AUG-CC-PV(Q+D)Z
    Blend: AUG-CC-PV(Q+D)Z
  Basis Set: (AUG-CC-PV(Q+D)Z AUX)
    Blend: AUG-CC-PVQZ-JKFIT
  @DF-RKS Final Energy:  -115.72418991133472
    Total Energy =                       -115.7241899113347188
  Basis Set: AUG-CC-PV(Q+D)Z
    Blend: AUG-CC-PV(Q+D)Z
  Basis Set: (AUG-CC-PV(Q+D)Z AUX)
    Blend: AUG-CC-PVQZ-JKFIT
  @DF-RKS Final Energy:  -115.72418314285434
    Total Energy =                       -115.7241831428543435
  Basis Set: AUG-CC-PV(Q+D)Z
    Blend: AUG-CC-PV(Q+D)Z
  Basis Set: (AUG-CC-PV(Q+D)Z AUX)
    Blend: AUG-CC-PVQZ-JKFIT
  @DF-RKS Final Energy:  -115.72418675966541
    Total Energy =                       -115.7241867596654004
  @DF-RKS Final Energy:  -115.72418861577968
    Total Energy =                       -115.7241886157796955
  @DF-RKS Final Energy:  -115.72418093848408
    Total Energy =                       -115.7241809384840963
  @DF-RKS Final Energy:  -115.72418867152791
    Total Energy =                       -115.7241886715279122
  @DF-RKS Final Energy:  -115.72418723676491
    Total Energy =                       -115.7241872367649052
  @DF-RKS Final Energy:  -115.72418741175569
    Total Energy =                       -115.7241874117556932
  @DF-RKS Final Energy:  -115.72419465960127
    Total Energy =                       -115.7241946596012667
  @DF-RKS Final Energy:  -115.72417993405791
    Total Energy =                       -115.7241799340579149
  @DF-RKS Final Energy:  -115.72418684373994
    Total Energy =                       -115.7241868437399432
  @DF-RKS Final Energy:  -115.72418800908423
    Total Energy =                       -115.7241880090842301
  @DF-RKS Final Energy:  -115.72418944325048
    Total Energy =                       -115.7241894432504807
  @DF-RKS Final Energy:  -115.72418110670833
    Total Energy =                       -115.7241811067083290
  @DF-RKS Final Energy:  -115.72418272398190
    Total Energy =                       -115.7241827239818974
  @DF-RKS Final Energy:  -115.72417997878399
    Total Energy =                       -115.7241799787839938
  @DF-RKS Final Energy:  -115.72420419793096
    Total Energy =                       -115.7242041979309448
  @DF-RKS Final Energy:  -115.72420126721221
    Total Energy =                       -115.7242012672122087
  @DF-RKS Final Energy:  -115.72420323538766
    Total Energy =                       -115.7242032353876482
  **** Optimization is complete! (in 3 steps) ****
    Final optimized geometry and variables:
  @DF-RKS Final Energy:  -115.72419747695844
    Total Energy =                       -115.7241974769584374
  @DF-RKS Final Energy:  -115.72419684080484
    Total Energy =                       -115.7241968408048365
  @DF-RKS Final Energy:  -115.72419521794704
    Total Energy =                       -115.7241952179470417
  @DF-RKS Final Energy:  -115.72419472033073
    Total Energy =                       -115.7241947203307291
  @DF-RKS Final Energy:  -115.72420345092635
    Total Energy =                       -115.7242034509263533
  @DF-RKS Final Energy:  -115.72420396428171
    Total Energy =                       -115.7242039642817133
  @DF-RKS Final Energy:  -115.72420428259825
    Total Energy =                       -115.7242042825982509
  @DF-RKS Final Energy:  -115.72420330163925
    Total Energy =                       -115.7242033016392497
  @DF-RKS Final Energy:  -115.72420074767284
    Total Energy =                       -115.7242007476728389
  @DF-RKS Final Energy:  -115.72420073756096
    Total Energy =                       -115.7242007375609631
  @DF-RKS Final Energy:  -115.72420425626224
    Total Energy =                       -115.7242042562622544
  @DF-RKS Final Energy:  -115.72420424949121
    Total Energy =                       -115.7242042494912084
  @DF-RKS Final Energy:  -115.72420483923987
    Total Energy =                       -115.7242048392398743
  @DF-RKS Final Energy:  -115.72420483924157
    Total Energy =                       -115.7242048392415512
  @DF-RKS Final Energy:  -115.72420406038066
    Total Energy =                       -115.7242040603806572
  @DF-RKS Final Energy:  -115.72420405650060
    Total Energy =                       -115.7242040565005965
  Basis Set: AUG-CC-PV(Q+D)Z
    Blend: AUG-CC-PV(Q+D)Z
  Basis Set: (AUG-CC-PV(Q+D)Z AUX)
    Blend: AUG-CC-PVQZ-JKFIT
  @DF-RKS Final Energy:  -115.72420324267092
    Total Energy =                       -115.7242032426709386
  Basis Set: AUG-CC-PV(Q+D)Z
    Blend: AUG-CC-PV(Q+D)Z
  Basis Set: (AUG-CC-PV(Q+D)Z AUX)
    Blend: AUG-CC-PVQZ-JKFIT
  @DF-RKS Final Energy:  -115.72420325695764
    Total Energy =                       -115.7242032569576509
  Multiplicity = 1
  Basis Set: AUG-CC-PV(Q+D)Z
    Blend: AUG-CC-PV(Q+D)Z
  Basis Set: (AUG-CC-PV(Q+D)Z AUX)
    Blend: AUG-CC-PVQZ-JKFIT
  @DF-RKS Final Energy:  -115.72420001234016
    Total Energy =                       -115.7242000123401624
    Molecular point group: c1

    Geometry (in Angstrom), charge = 0, multiplicity = 1:

       Center              X                  Y                   Z               Mass
    ------------   -----------------  -----------------  -----------------  -----------------
         C           -0.028577435773     0.726822625878     0.000000000000    12.000000000000
         H           -1.068999948751     1.038834524688     0.000000000000     1.007825032230
         H            0.453163270458     1.135830618999     0.888020707180     1.007825032230
         H            0.455432112516     1.139646519644    -0.890065234229     1.007825032230
         O           -0.024167895315    -0.691422798803     0.000200882008    15.994914619570
         H            0.884233234483    -0.995082583289    -0.001143616201     1.007825032230

  Charge       = 0
  Multiplicity = 1
  Basis Set: AUG-CC-PV(Q+D)Z
    Blend: AUG-CC-PV(Q+D)Z
  Basis Set: (AUG-CC-PV(Q+D)Z AUX)
    Blend: AUG-CC-PVQZ-JKFIT

    Orbital Energies [Eh]
    ---------------------

    Doubly Occupied:

       1A    -19.331583     2A    -10.381087     3A     -1.149692
       4A     -0.803750     5A     -0.618559     6A     -0.549484
       7A     -0.533155     8A     -0.443354     9A     -0.384583

  @DF-RKS Final Energy:  -115.72420000669699

   => Energetics <=

    Nuclear Repulsion Energy =             40.3787443609172101
    One-Electron Energy =                -237.0371554308794373
    Two-Electron Energy =                  91.7685389390492503
    DFT Exchange-Correlation Energy =     -10.9079225080360942
    Empirical Dispersion Energy =           0.0000000000000000
    VV10 Nonlocal Energy =                  0.0735946322520757
    Total Energy =                       -115.7242000066969894

  Dipole Moment: [D]
     X:     1.3545      Y:     0.9604      Z:     0.0006     Total:     1.6604

  Vibration                       7                   8                   9
  Freq [cm^-1]                 309.4869           1058.0317           1090.2610
  Irrep                          App                  Ap                  Ap
  Reduced mass [u]              1.0687              1.1547              5.1265
  Force const [mDyne/A]         0.0603              0.7616              3.5903

  Vibration                       10                  11                  12
  Freq [cm^-1]                1168.7329           1356.2840           1479.6661
  Irrep                          App                  Ap                 App
  Reduced mass [u]              1.2819              1.3047              1.0412
  Force const [mDyne/A]         1.0317              1.4140              1.3431

  Vibration                       13                  14                  15
  Freq [cm^-1]                1481.5037           1499.6497           3025.4360
  Irrep                           Ap                  Ap                  Ap
  Reduced mass [u]              1.1139              1.0592              1.0349
  Force const [mDyne/A]         1.4405              1.4035              5.5814

  Vibration                       16                  17                  18
  Freq [cm^-1]                3069.6580           3139.9530           3881.5879
  Irrep                          App                  Ap                  Ap
  Reduced mass [u]              1.1038              1.0996              1.0667
  Force const [mDyne/A]         6.1280              6.3873              9.4691

  ==> Thermochemistry Components <==

  Entropy, S
    Electronic S            0.000 [cal/(mol K)]        0.000 [J/(mol K)]       0.00000000 [mEh/K] (multiplicity = 1)
    Translational S        36.324 [cal/(mol K)]      151.980 [J/(mol K)]       0.05788598 [mEh/K] (mol. weight = 32.0262 [u], P = 101325.00 [Pa])
    Rotational S           18.973 [cal/(mol K)]       79.383 [J/(mol K)]       0.03023558 [mEh/K] (symmetry no. = 1)
    Vibrational S           1.610 [cal/(mol K)]        6.736 [J/(mol K)]       0.00256554 [mEh/K]
  Total S                  56.907 [cal/(mol K)]      238.099 [J/(mol K)]       0.09068710 [mEh/K]
  Correction S              0.000 [cal/(mol K)]        0.000 [J/(mol K)]       0.00000000 [mEh/K]

  Constant volume heat capacity, Cv
    Electronic Cv           0.000 [cal/(mol K)]        0.000 [J/(mol K)]       0.00000000 [mEh/K]
    Translational Cv        2.981 [cal/(mol K)]       12.472 [J/(mol K)]       0.00475022 [mEh/K]
    Rotational Cv           2.981 [cal/(mol K)]       12.472 [J/(mol K)]       0.00475022 [mEh/K]
    Vibrational Cv          2.847 [cal/(mol K)]       11.910 [J/(mol K)]       0.00453638 [mEh/K]
  Total Cv                  8.808 [cal/(mol K)]       36.854 [J/(mol K)]       0.01403681 [mEh/K]
  Correction Cv             0.000 [cal/(mol K)]        0.000 [J/(mol K)]       0.00000000 [mEh/K]

  Constant pressure heat capacity, Cp
    Electronic Cp           0.000 [cal/(mol K)]        0.000 [J/(mol K)]       0.00000000 [mEh/K]
    Translational Cp        4.968 [cal/(mol K)]       20.786 [J/(mol K)]       0.00791703 [mEh/K]
    Rotational Cp           2.981 [cal/(mol K)]       12.472 [J/(mol K)]       0.00475022 [mEh/K]
    Vibrational Cp          2.847 [cal/(mol K)]       11.910 [J/(mol K)]       0.00453638 [mEh/K]
  Total Cp                 10.795 [cal/(mol K)]       45.168 [J/(mol K)]       0.01720362 [mEh/K]
  Correction Cp             0.000 [cal/(mol K)]        0.000 [J/(mol K)]       0.00000000 [mEh/K]

  ==> Thermochemistry Energy Analysis <==

  Raw electronic energy, E0
  Total E0, Electronic energy at well bottom at 0 [K]                 -115.72420530 [Eh]

  Zero-point energy, ZPE_vib = Sum_i nu_i / 2
    Electronic ZPE          0.000 [kcal/mol]        0.000 [kJ/mol]       0.00000000 [Eh]
    Translational ZPE       0.000 [kcal/mol]        0.000 [kJ/mol]       0.00000000 [Eh]
    Rotational ZPE          0.000 [kcal/mol]        0.000 [kJ/mol]       0.00000000 [Eh]
    Vibrational ZPE        32.251 [kcal/mol]      134.940 [kJ/mol]       0.05139603 [Eh]       11280.125 [cm^-1]
  Correction ZPE           32.251 [kcal/mol]      134.940 [kJ/mol]       0.05139603 [Eh]       11280.125 [cm^-1]
  Total ZPE, Electronic energy at 0 [K]                               -115.67280926 [Eh]

  Thermal Energy, E (includes ZPE)
    Electronic E            0.000 [kcal/mol]        0.000 [kJ/mol]       0.00000000 [Eh]
    Translational E         0.889 [kcal/mol]        3.718 [kJ/mol]       0.00141628 [Eh]
    Rotational E            0.889 [kcal/mol]        3.718 [kJ/mol]       0.00141628 [Eh]
    Vibrational E          32.570 [kcal/mol]      136.272 [kJ/mol]       0.05190324 [Eh]
  Correction E             34.347 [kcal/mol]      143.709 [kJ/mol]       0.05473580 [Eh]
  Total E, Electronic energy at  298.15 [K]                           -115.66946950 [Eh]

  Enthalpy, H_trans = E_trans + k_B * T
    Electronic H            0.000 [kcal/mol]        0.000 [kJ/mol]       0.00000000 [Eh]
    Translational H         1.481 [kcal/mol]        6.197 [kJ/mol]       0.00236046 [Eh]
    Rotational H            0.889 [kcal/mol]        3.718 [kJ/mol]       0.00141628 [Eh]
    Vibrational H          32.570 [kcal/mol]      136.272 [kJ/mol]       0.05190324 [Eh]
  Correction H             34.940 [kcal/mol]      146.188 [kJ/mol]       0.05567998 [Eh]
  Total H, Enthalpy at  298.15 [K]                                    -115.66852532 [Eh]

  Gibbs free energy, G = H - T * S
    Electronic G            0.000 [kcal/mol]        0.000 [kJ/mol]       0.00000000 [Eh]
    Translational G        -9.349 [kcal/mol]      -39.115 [kJ/mol]      -0.01489824 [Eh]
    Rotational G           -4.768 [kcal/mol]      -19.950 [kJ/mol]      -0.00759846 [Eh]
    Vibrational G          32.090 [kcal/mol]      134.264 [kJ/mol]       0.05113833 [Eh]
  Correction G             17.973 [kcal/mol]       75.199 [kJ/mol]       0.02864162 [Eh]
  Total G, Free enthalpy at  298.15 [K]                               -115.69556367 [Eh]

*** Psi4 exiting successfully. Buy a developer a beer!
