                               Psi4 1.3.2 release

  ==> Input File <==

--------------------------------------------------------------------------
memory 144 GB

molecule {
0 3
S 0.0000000000 0.0000000000 0.0000000000
S 0.0000000000 0.0000000000 1.8968845900
}

set reference uks
set basis aug-cc-pV(Q+d)Z

optimize("WB97M-V")
frequencies("WB97M-V")
--------------------------------------------------------------------------

    Molecular point group: d2h
  Charge       = 0
  Multiplicity = 3
  Basis Set: AUG-CC-PV(Q+D)Z
    Blend: AUG-CC-PV(Q+D)Z
  Basis Set: (AUG-CC-PV(Q+D)Z AUX)
    Blend: AUG-CC-PVQZ-JKFIT
  @DF-UKS Final Energy:  -796.37075822390955
    Total Energy =                       -796.3707582239095473
    Molecular point group: d2h
  Basis Set: AUG-CC-PV(Q+D)Z
    Blend: AUG-CC-PV(Q+D)Z
  Basis Set: (AUG-CC-PV(Q+D)Z AUX)
    Blend: AUG-CC-PVQZ-JKFIT
  @DF-UKS Final Energy:  -796.37074541620200
    Total Energy =                       -796.3707454162022259
  Basis Set: AUG-CC-PV(Q+D)Z
    Blend: AUG-CC-PV(Q+D)Z
  Basis Set: (AUG-CC-PV(Q+D)Z AUX)
    Blend: AUG-CC-PVQZ-JKFIT
  @DF-UKS Final Energy:  -796.37077052618110
    Total Energy =                       -796.3707705261812180
  Basis Set: AUG-CC-PV(Q+D)Z
    Blend: AUG-CC-PV(Q+D)Z
  Basis Set: (AUG-CC-PV(Q+D)Z AUX)
    Blend: AUG-CC-PVQZ-JKFIT
  @DF-UKS Final Energy:  -796.37089285222839
    Total Energy =                       -796.3708928522283941
  @DF-UKS Final Energy:  -796.37088853162277
    Total Energy =                       -796.3708885316227679
  @DF-UKS Final Energy:  -796.37089663083725
    Total Energy =                       -796.3708966308372510
  @DF-UKS Final Energy:  -796.37090789756803
    Total Energy =                       -796.3709078975679176
  @DF-UKS Final Energy:  -796.37090777366348
    Total Energy =                       -796.3709077736635891
  @DF-UKS Final Energy:  -796.37090746379704
    Total Energy =                       -796.3709074637972662
  **** Optimization is complete! (in 3 steps) ****
    Final optimized geometry and variables:
  @DF-UKS Final Energy:  -796.37090789756780
    Total Energy =                       -796.3709078975676903
  @DF-UKS Final Energy:  -796.37090777366370
    Total Energy =                       -796.3709077736635891
  Basis Set: AUG-CC-PV(Q+D)Z
    Blend: AUG-CC-PV(Q+D)Z
  Basis Set: (AUG-CC-PV(Q+D)Z AUX)
    Blend: AUG-CC-PVQZ-JKFIT
  @DF-UKS Final Energy:  -796.37090746379647
    Total Energy =                       -796.3709074637966978
  Basis Set: AUG-CC-PV(Q+D)Z
    Blend: AUG-CC-PV(Q+D)Z
  Basis Set: (AUG-CC-PV(Q+D)Z AUX)
    Blend: AUG-CC-PVQZ-JKFIT
  @DF-UKS Final Energy:  -796.37090789756849
    Total Energy =                       -796.3709078975683724
  Multiplicity = 3
  Basis Set: AUG-CC-PV(Q+D)Z
    Blend: AUG-CC-PV(Q+D)Z
  Basis Set: (AUG-CC-PV(Q+D)Z AUX)
    Blend: AUG-CC-PVQZ-JKFIT
  @DF-UKS Final Energy:  -796.37090777366348
    Total Energy =                       -796.3709077736634754
    Molecular point group: d2h

    Geometry (in Angstrom), charge = 0, multiplicity = 3:

       Center              X                  Y                   Z               Mass
    ------------   -----------------  -----------------  -----------------  -----------------
         S            0.000000000000     0.000000000000    -0.940226846551    31.972071174400
         S            0.000000000000     0.000000000000     0.940226846551    31.972071174400

  Charge       = 0
  Multiplicity = 3
  Basis Set: AUG-CC-PV(Q+D)Z
    Blend: AUG-CC-PV(Q+D)Z
  Basis Set: (AUG-CC-PV(Q+D)Z AUX)
    Blend: AUG-CC-PVQZ-JKFIT

    Orbital Energies [Eh]
    ---------------------

    Alpha Occupied:

       1B1u  -89.259718     1Ag   -89.259716     2Ag    -8.171402
       2B1u   -8.171225     1B2u   -6.080897     1B3u   -6.080897
       1B3g   -6.080849     1B2g   -6.080849     3Ag    -6.079103
       3B1u   -6.078281     4Ag    -0.963307     4B1u   -0.744808
       5Ag    -0.496614     2B2u   -0.480756     2B3u   -0.480756
       2B2g   -0.331719     2B3g   -0.331719

    Alpha Virtual:

       5B1u    0.025098     6Ag     0.048235     3B2u    0.055786
       3B3u    0.055786     7Ag     0.071889     3B3g    0.079337
       3B2g    0.079337     6B1u    0.088494     8Ag     0.142391
       1B1g    0.142392     7B1u    0.164625     4B2u    0.196366
       4B3u    0.196366     9Ag     0.203925     1Au     0.224759
       8B1u    0.224762     4B3g    0.245666     4B2g    0.245666
       9B1u    0.257655     5B2u    0.331686     5B3u    0.331686
      10Ag     0.359923     2B1g    0.384991    11Ag     0.384992
       6B3u    0.388793     6B2u    0.388793    10B1u    0.420564
      12Ag     0.422093     5B3g    0.447722     5B2g    0.447722
       7B3u    0.466118     7B2u    0.466118     2Au     0.471046
      11B1u    0.471051    13Ag     0.518338     6B3g    0.558066
       6B2g    0.558066    14Ag     0.561884     3B1g    0.561885
       7B2g    0.587704     7B3g    0.587704    12B1u    0.617614
       8B2u    0.704771     8B3u    0.704771     3Au     0.716762
      13B1u    0.716771    14B1u    0.758774    15Ag     0.809481
       8B3g    0.840094     8B2g    0.840094    15B1u    0.950683
       9B3u    1.087493     9B2u    1.087493    16Ag     1.105178
       4B1g    1.105183    17Ag     1.181961    16B1u    1.203661
       4Au     1.203664     9B3g    1.220994     9B2g    1.220994
      17B1u    1.244611    18Ag     1.255367    10B3u    1.262083
      10B2u    1.262083     5B1g    1.277030    19Ag     1.277034
      20Ag     1.282099     6B1g    1.282121    11B2u    1.338555
      11B3u    1.338555    12B3u    1.377906    12B2u    1.377906
      10B2g    1.417099    10B3g    1.417099    13B2u    1.439014
      13B3u    1.439014    18B1u    1.445706     5Au     1.445724
       6Au     1.501555    19B1u    1.501578    11B3g    1.569830
      11B2g    1.569830    21Ag     1.573928    20B1u    1.583108
      12B3g    1.588763    12B2g    1.588763     7B1g    1.628384
      22Ag     1.628417    13B3g    1.696497    13B2g    1.696497
      21B1u    1.963652    14B3u    1.983148    14B2u    1.983148
      23Ag     2.087319    22B1u    2.103585     7Au     2.103598
      23B1u    2.121085    14B3g    2.415233    14B2g    2.415233
      24Ag     2.554477    24B1u    2.559442    25Ag     2.752902
       8B1g    2.752969    15B2u    2.840363    15B3u    2.840363
      25B1u    2.841971     8Au     2.842055    26Ag     3.025706
      27Ag     3.170293    15B2g    3.232011    15B3g    3.232011
       9B1g    3.287720    28Ag     3.287734    16B3u    3.292878
      16B2u    3.292878    17B2u    3.334265    17B3u    3.334265
      16B3g    3.396036    16B2g    3.396036    18B2u    3.452369
      18B3u    3.452369    10B1g    3.492876    29Ag     3.492904
      30Ag     3.495587    11B1g    3.495602    26B1u    3.519056
      27B1u    3.567168     9Au     3.567197    10Au     3.586812
      28B1u    3.586876    17B3g    3.666140    17B2g    3.666140
      18B3g    3.730154    18B2g    3.730154    19B2u    3.802736
      19B3u    3.802736    29B1u    3.914801    31Ag     3.999861
      30B1u    4.063281    11Au     4.063282    19B3g    4.507015
      19B2g    4.507015    31B1u    4.891653    20B2u    5.325187
      20B3u    5.325187    20B3g    5.979482    20B2g    5.979482
      32Ag     6.708354    32B1u    6.762576    12B1g    8.750255
      33Ag     8.750307    12Au     8.819857    33B1u    8.819907
      21B2u    8.866198    21B3u    8.866198    21B3g    9.211847
      21B2g    9.211847    34Ag     9.227643    34B1u    9.310652
      35Ag    17.799930    35B1u   20.366610

    Beta Occupied:

       1Ag   -89.253542     1B1u  -89.253541     2Ag    -8.165224
       2B1u   -8.164975     3Ag    -6.075248     3B1u   -6.074424
       1B2u   -6.067586     1B3u   -6.067586     1B3g   -6.067522
       1B2g   -6.067522     4Ag    -0.938323     4B1u   -0.688986
       5Ag    -0.470781     2B2u   -0.425536     2B3u   -0.425536

    Beta Virtual:

       2B2g   -0.060871     2B3g   -0.060871     5B1u    0.025091
       6Ag     0.047071     3B2u    0.054939     3B3u    0.054939
       7Ag     0.073612     3B3g    0.079894     3B2g    0.079894
       6B1u    0.100809     1B1g    0.146746     8Ag     0.146746
       7B1u    0.167778     9Ag     0.205344     4B2u    0.206573
       4B3u    0.206573     1Au     0.224994     8B1u    0.224998
       4B3g    0.245966     4B2g    0.245966     9B1u    0.259793
       5B3u    0.337404     5B2u    0.337404    10Ag     0.362750
       2B1g    0.400354    11Ag     0.400355     6B3u    0.411839
       6B2u    0.411839    10B1u    0.424335    12Ag     0.424460
       5B3g    0.449127     5B2g    0.449127     7B3u    0.464880
       7B2u    0.464880     2Au     0.501585    11B1u    0.501591
      13Ag     0.527462     3B1g    0.564048    14Ag     0.564049
       6B3g    0.565954     6B2g    0.565954     7B2g    0.579639
       7B3g    0.579639    12B1u    0.624334     8B3u    0.703491
       8B2u    0.703491     3Au     0.716113    13B1u    0.716123
      14B1u    0.762252    15Ag     0.823849     8B3g    0.854362
       8B2g    0.854362    15B1u    0.956080     9B3u    1.089353
       9B2u    1.089353    16Ag     1.127875     4B1g    1.127883
      17Ag     1.187681    16B1u    1.226661     4Au     1.226680
       9B3g    1.250961     9B2g    1.250961    17B1u    1.261413
      18Ag     1.263472    10B3u    1.264288    10B2u    1.264288
      19Ag     1.286121     5B1g    1.286138    20Ag     1.296139
       6B1g    1.296148    11B2u    1.384119    11B3u    1.384119
      12B3u    1.405716    12B2u    1.405716    18B1u    1.451991
       5Au     1.452020    10B2g    1.452142    10B3g    1.452142
      13B2u    1.455518    13B3u    1.455518     6Au     1.521607
      19B1u    1.521635    11B3g    1.576653    11B2g    1.576653
      21Ag     1.580021    20B1u    1.593447    12B3g    1.607187
      12B2g    1.607187     7B1g    1.635084    22Ag     1.635122
      13B3g    1.701350    13B2g    1.701350    21B1u    1.981587
      14B3u    1.993528    14B2u    1.993528    22B1u    2.119115
       7Au     2.119117    23B1u    2.135571    23Ag     2.135825
      14B3g    2.450938    14B2g    2.450938    24Ag     2.567621
      24B1u    2.598032    25Ag     2.809436     8B1g    2.809441
      15B2u    2.871361    15B3u    2.871361    25B1u    2.897130
       8Au     2.897150    26Ag     3.039162    27Ag     3.186809
      15B2g    3.263975    15B3g    3.263975    16B3u    3.305703
      16B2u    3.305703    28Ag     3.311195     9B1g    3.311200
      17B2u    3.410536    17B3u    3.410536    16B3g    3.474748
      16B2g    3.474748    18B2u    3.503396    18B3u    3.503396
      10B1g    3.543756    29Ag     3.543763    26B1u    3.545238
      11B1g    3.576064    30Ag     3.576078     9Au     3.636041
      27B1u    3.636059    10Au     3.646800    28B1u    3.646807
      17B3g    3.692558    17B2g    3.692558    18B3g    3.782712
      18B2g    3.782712    19B2u    3.840176    19B3u    3.840176
      29B1u    3.938881    31Ag     4.019255    30B1u    4.100431
      11Au     4.100436    19B3g    4.531137    19B2g    4.531137
      31B1u    4.900771    20B2u    5.378791    20B3u    5.378791
      20B3g    6.035223    20B2g    6.035223    32Ag     6.714593
      32B1u    6.769434    12B1g    8.782898    33Ag     8.782967
      12Au     8.853829    33B1u    8.853900    21B2u    8.882813
      21B3u    8.882813    21B3g    9.230964    21B2g    9.230964
      34Ag     9.243580    34B1u    9.326488    35Ag    17.813785
      35B1u   20.376779

    Final Occupation by Irrep:
             Ag   B1g   B2g   B3g    Au   B1u   B2u   B3u
    DOCC [     5,    0,    1,    1,    0,    4,    2,    2 ]
    SOCC [     0,    0,    1,    1,    0,    0,    0,    0 ]

  @DF-UKS Final Energy:  -796.37090746379658

   => Energetics <=

    Nuclear Repulsion Energy =             72.0407880441313040
    One-Electron Energy =               -1242.6741293817881342
    Two-Electron Energy =                 413.7060595198312285
    DFT Exchange-Correlation Energy =     -39.5771896987579481
    Empirical Dispersion Energy =           0.0000000000000000
    VV10 Nonlocal Energy =                  0.1335640527871384
    Total Energy =                       -796.3709074637964704

  UHF NO Occupations:
  HONO-2 :    2B3u 1.9979628
  HONO-1 :    2B3g 1.0000000
  HONO-0 :    2B2g 1.0000000
  LUNO+0 :    3B3u 0.0020372
  LUNO+1 :    3B2u 0.0020372
  LUNO+2 :    5B1u 0.0002688
  LUNO+3 :    6 Ag 0.0002104

Computation Completed

Properties will be evaluated at   0.000000,   0.000000,   0.000000 [a0]

Properties computed using the SCF density matrix

  Nuclear Dipole Moment: [e a0]
     X:     0.0000      Y:     0.0000      Z:     0.0000

  Electronic Dipole Moment: [e a0]
     X:     0.0000      Y:     0.0000      Z:     0.0000

  Dipole Moment: [e a0]
     X:     0.0000      Y:     0.0000      Z:     0.0000     Total:     0.0000

  Dipole Moment: [D]
     X:     0.0000      Y:     0.0000      Z:     0.0000     Total:     0.0000

*** tstop() called on bp1-compute00081.data.bp.acrc.priv at Fri Apr 23 08:49:00 2021
Module time:
	user time   =     315.52 seconds =       5.26 minutes
	system time =      12.55 seconds =       0.21 minutes
	total time  =         14 seconds =       0.23 minutes
Total time:
	user time   =    3802.33 seconds =      63.37 minutes
	system time =     165.55 seconds =       2.76 minutes
	total time  =        171 seconds =       2.85 minutes

         ----------------------------------------------------------
                                   FINDIF
                     R. A. King and Jonathon Misiewicz
         ---------------------------------------------------------

  Computing second-derivative from energies using projected,
  symmetry-adapted, cartesian coordinates.

  3 energies passed in, including the reference geometry.
    Using 3-point formula.
    Energy without displacement: -796.3709078976
    Check energies below for precision!
    0: -1 :      -796.3709077737
    0: 1  :      -796.3709074638

-------------------------------------------------------------

  ==> Harmonic Vibrational Analysis <==

  non-mass-weighted Hessian:       Symmetric? True   Hermitian? True   Lin Dep Dim?  5 (0)
  projection of translations (True) and rotations (True) removed 5 degrees of freedom (5)
  total projector:                 Symmetric? True   Hermitian? True   Lin Dep Dim?  5 (5)
  mass-weighted Hessian:           Symmetric? True   Hermitian? True   Lin Dep Dim?  5 (0)
  pre-proj  low-frequency mode:    0.0000  [cm^-1]
  pre-proj  low-frequency mode:    0.0000  [cm^-1]
  pre-proj  low-frequency mode:    0.0000  [cm^-1]
  pre-proj  low-frequency mode:    0.0000  [cm^-1]
  pre-proj  low-frequency mode:    0.0000  [cm^-1]
  pre-proj  all modes:['0.0000' '0.0000' '0.0000' '0.0000' '0.0000' '767.7602']
  projected mass-weighted Hessian: Symmetric? True   Hermitian? True   Lin Dep Dim?  5 (5)
  post-proj low-frequency mode:    0.0000i [cm^-1] (TR)
  post-proj low-frequency mode:    0.0000  [cm^-1] (TR)
  post-proj low-frequency mode:    0.0000  [cm^-1] (TR)
  post-proj low-frequency mode:    0.0000  [cm^-1] (TR)
  post-proj low-frequency mode:    0.0000  [cm^-1] (TR)
  post-proj  all modes:['0.0000i' '0.0000' '0.0000' '0.0000' '0.0000' '767.7602']

  Vibration                       6
  Freq [cm^-1]                 767.7602
  Irrep                           Ag
  Reduced mass [u]             31.9721
  Force const [mDyne/A]        11.1038
  Turning point v=0 [a0]        0.0700
  RMS dev v=0 [a0 u^1/2]        0.2800
  Char temp [K]               1104.6360
  ----------------------------------------------------------------------------------
      1   S                0.00  0.00  0.71
      2   S                0.00  0.00 -0.71

  ==> Thermochemistry Components <==

  Entropy, S
    Electronic S            2.183 [cal/(mol K)]        9.134 [J/(mol K)]       0.00347910 [mEh/K] (multiplicity = 3)
    Translational S        38.385 [cal/(mol K)]      160.603 [J/(mol K)]       0.06117054 [mEh/K] (mol. weight = 63.9441 [u], P = 101325.00 [Pa])
    Rotational S           13.615 [cal/(mol K)]       56.965 [J/(mol K)]       0.02169676 [mEh/K] (symmetry no. = 2)
    Vibrational S           0.235 [cal/(mol K)]        0.984 [J/(mol K)]       0.00037480 [mEh/K]
  Total S                  54.418 [cal/(mol K)]      227.686 [J/(mol K)]       0.08672120 [mEh/K]
  Correction S              0.000 [cal/(mol K)]        0.000 [J/(mol K)]       0.00000000 [mEh/K]

  Constant volume heat capacity, Cv
    Electronic Cv           0.000 [cal/(mol K)]        0.000 [J/(mol K)]       0.00000000 [mEh/K]
    Translational Cv        2.981 [cal/(mol K)]       12.472 [J/(mol K)]       0.00475022 [mEh/K]
    Rotational Cv           1.987 [cal/(mol K)]        8.314 [J/(mol K)]       0.00316681 [mEh/K]
    Vibrational Cv          0.705 [cal/(mol K)]        2.951 [J/(mol K)]       0.00112403 [mEh/K]
  Total Cv                  5.673 [cal/(mol K)]       23.737 [J/(mol K)]       0.00904106 [mEh/K]
  Correction Cv             0.000 [cal/(mol K)]        0.000 [J/(mol K)]       0.00000000 [mEh/K]

  Constant pressure heat capacity, Cp
    Electronic Cp           0.000 [cal/(mol K)]        0.000 [J/(mol K)]       0.00000000 [mEh/K]
    Translational Cp        4.968 [cal/(mol K)]       20.786 [J/(mol K)]       0.00791703 [mEh/K]
    Rotational Cp           1.987 [cal/(mol K)]        8.314 [J/(mol K)]       0.00316681 [mEh/K]
    Vibrational Cp          0.705 [cal/(mol K)]        2.951 [J/(mol K)]       0.00112403 [mEh/K]
  Total Cp                  7.661 [cal/(mol K)]       32.052 [J/(mol K)]       0.01220787 [mEh/K]
  Correction Cp             0.000 [cal/(mol K)]        0.000 [J/(mol K)]       0.00000000 [mEh/K]

  ==> Thermochemistry Energy Analysis <==

  Raw electronic energy, E0
  Total E0, Electronic energy at well bottom at 0 [K]                 -796.37090790 [Eh]

  Zero-point energy, ZPE_vib = Sum_i nu_i / 2
    Electronic ZPE          0.000 [kcal/mol]        0.000 [kJ/mol]       0.00000000 [Eh]
    Translational ZPE       0.000 [kcal/mol]        0.000 [kJ/mol]       0.00000000 [Eh]
    Rotational ZPE          0.000 [kcal/mol]        0.000 [kJ/mol]       0.00000000 [Eh]
    Vibrational ZPE         1.098 [kcal/mol]        4.592 [kJ/mol]       0.00174909 [Eh]         383.880 [cm^-1]
  Correction ZPE            1.098 [kcal/mol]        4.592 [kJ/mol]       0.00174909 [Eh]         383.880 [cm^-1]
  Total ZPE, Electronic energy at 0 [K]                               -796.36915881 [Eh]

  Thermal Energy, E (includes ZPE)
    Electronic E            0.000 [kcal/mol]        0.000 [kJ/mol]       0.00000000 [Eh]
    Translational E         0.889 [kcal/mol]        3.718 [kJ/mol]       0.00141628 [Eh]
    Rotational E            0.592 [kcal/mol]        2.479 [kJ/mol]       0.00094418 [Eh]
    Vibrational E           1.153 [kcal/mol]        4.824 [kJ/mol]       0.00183732 [Eh]
  Correction E              2.634 [kcal/mol]       11.021 [kJ/mol]       0.00419778 [Eh]
  Total E, Electronic energy at  298.15 [K]                           -796.36671012 [Eh]

  Enthalpy, H_trans = E_trans + k_B * T
    Electronic H            0.000 [kcal/mol]        0.000 [kJ/mol]       0.00000000 [Eh]
    Translational H         1.481 [kcal/mol]        6.197 [kJ/mol]       0.00236046 [Eh]
    Rotational H            0.592 [kcal/mol]        2.479 [kJ/mol]       0.00094418 [Eh]
    Vibrational H           1.153 [kcal/mol]        4.824 [kJ/mol]       0.00183732 [Eh]
  Correction H              3.227 [kcal/mol]       13.500 [kJ/mol]       0.00514196 [Eh]
  Total H, Enthalpy at  298.15 [K]                                    -796.36576594 [Eh]

  Gibbs free energy, G = H - T * S
    Electronic G           -0.651 [kcal/mol]       -2.723 [kJ/mol]      -0.00103729 [Eh]
    Translational G        -9.963 [kcal/mol]      -41.686 [kJ/mol]      -0.01587754 [Eh]
    Rotational G           -3.467 [kcal/mol]      -14.505 [kJ/mol]      -0.00552471 [Eh]
    Vibrational G           1.083 [kcal/mol]        4.530 [kJ/mol]       0.00172557 [Eh]
  Correction G            -12.998 [kcal/mol]      -54.385 [kJ/mol]      -0.02071396 [Eh]
  Total G, Free enthalpy at  298.15 [K]                               -796.39162186 [Eh]

    Psi4 stopped on: Friday, 23 April 2021 08:49AM
    Psi4 wall time for execution: 0:02:51.21

*** Psi4 exiting successfully. Buy a developer a beer!
