                               Psi4 1.3.2 release

  ==> Input File <==

--------------------------------------------------------------------------
memory 144 GB

molecule {
0 3
S 0.0000000000 0.0000000000 0.0000000000
S 0.0000000000 0.0000000000 1.8968845900
}

set reference uks
set dynamic_level 1
set basis aug-cc-pV(Q+d)Z

optimize("wB97M-V")
frequencies("wB97M-V")
--------------------------------------------------------------------------

    Molecular point group: d2h
  Charge       = 0
  Multiplicity = 3
  Basis Set: AUG-CC-PV(Q+D)Z
    Blend: AUG-CC-PV(Q+D)Z
  Basis Set: (AUG-CC-PV(Q+D)Z AUX)
    Blend: AUG-CC-PVQZ-JKFIT
  @DF-UKS Final Energy:  -796.37075822390943
    Total Energy =                       -796.3707582239094336
    Molecular point group: d2h
  Basis Set: AUG-CC-PV(Q+D)Z
    Blend: AUG-CC-PV(Q+D)Z
  Basis Set: (AUG-CC-PV(Q+D)Z AUX)
    Blend: AUG-CC-PVQZ-JKFIT
  @DF-UKS Final Energy:  -796.37074541620223
    Total Energy =                       -796.3707454162022259
  Basis Set: AUG-CC-PV(Q+D)Z
    Blend: AUG-CC-PV(Q+D)Z
  Basis Set: (AUG-CC-PV(Q+D)Z AUX)
    Blend: AUG-CC-PVQZ-JKFIT
  @DF-UKS Final Energy:  -796.37077052618065
    Total Energy =                       -796.3707705261806495
  Basis Set: AUG-CC-PV(Q+D)Z
    Blend: AUG-CC-PV(Q+D)Z
  Basis Set: (AUG-CC-PV(Q+D)Z AUX)
    Blend: AUG-CC-PVQZ-JKFIT
  @DF-UKS Final Energy:  -796.37089284990998
    Total Energy =                       -796.3708928499099784
  @DF-UKS Final Energy:  -796.37088853154228
    Total Energy =                       -796.3708885315422776
  @DF-UKS Final Energy:  -796.37089663135407
    Total Energy =                       -796.3708966313541850
  @DF-UKS Final Energy:  -796.37090789499439
    Total Energy =                       -796.3709078949942750
  @DF-UKS Final Energy:  -796.37090777539095
    Total Energy =                       -796.3709077753909469
  @DF-UKS Final Energy:  -796.37090746276544
    Total Energy =                       -796.3709074627655582
  **** Optimization is complete! (in 3 steps) ****
    Final optimized geometry and variables:
  @DF-UKS Final Energy:  -796.37090789499462
    Total Energy =                       -796.3709078949946161
  @DF-UKS Final Energy:  -796.37090777539163
    Total Energy =                       -796.3709077753914016
  Basis Set: AUG-CC-PV(Q+D)Z
    Blend: AUG-CC-PV(Q+D)Z
  Basis Set: (AUG-CC-PV(Q+D)Z AUX)
    Blend: AUG-CC-PVQZ-JKFIT
  @DF-UKS Final Energy:  -796.37090746276522
    Total Energy =                       -796.3709074627653308
  Basis Set: AUG-CC-PV(Q+D)Z
    Blend: AUG-CC-PV(Q+D)Z
  Basis Set: (AUG-CC-PV(Q+D)Z AUX)
    Blend: AUG-CC-PVQZ-JKFIT
  @DF-UKS Final Energy:  -796.37090789499462
    Total Energy =                       -796.3709078949946161
  Multiplicity = 3
  Basis Set: AUG-CC-PV(Q+D)Z
    Blend: AUG-CC-PV(Q+D)Z
  Basis Set: (AUG-CC-PV(Q+D)Z AUX)
    Blend: AUG-CC-PVQZ-JKFIT
  @DF-UKS Final Energy:  -796.37090777539106
    Total Energy =                       -796.3709077753909469
    Molecular point group: d2h

    Geometry (in Angstrom), charge = 0, multiplicity = 3:

       Center              X                  Y                   Z               Mass
    ------------   -----------------  -----------------  -----------------  -----------------
         S            0.000000000000     0.000000000000    -0.940226569865    31.972071174400
         S            0.000000000000     0.000000000000     0.940226569865    31.972071174400

  Charge       = 0
  Multiplicity = 3
  Basis Set: AUG-CC-PV(Q+D)Z
    Blend: AUG-CC-PV(Q+D)Z
  Basis Set: (AUG-CC-PV(Q+D)Z AUX)
    Blend: AUG-CC-PVQZ-JKFIT

    Orbital Energies [Eh]
    ---------------------

    Alpha Occupied:

       1B1u  -89.259718     1Ag   -89.259716     2Ag    -8.171402
       2B1u   -8.171225     1B3u   -6.080897     1B2u   -6.080897
       1B2g   -6.080849     1B3g   -6.080849     3Ag    -6.079103
       3B1u   -6.078281     4Ag    -0.963307     4B1u   -0.744808
       5Ag    -0.496614     2B3u   -0.480756     2B2u   -0.480756
       2B3g   -0.331719     2B2g   -0.331719

    Alpha Virtual:

       5B1u    0.025098     6Ag     0.048235     3B2u    0.055786
       3B3u    0.055786     7Ag     0.071889     3B3g    0.079337
       3B2g    0.079337     6B1u    0.088494     8Ag     0.142391
       1B1g    0.142392     7B1u    0.164625     4B2u    0.196366
       4B3u    0.196366     9Ag     0.203925     1Au     0.224759
       8B1u    0.224762     4B2g    0.245666     4B3g    0.245666
       9B1u    0.257655     5B2u    0.331685     5B3u    0.331685
      10Ag     0.359923     2B1g    0.384991    11Ag     0.384992
       6B2u    0.388793     6B3u    0.388793    10B1u    0.420564
      12Ag     0.422093     5B2g    0.447722     5B3g    0.447722
       7B3u    0.466118     7B2u    0.466118     2Au     0.471046
      11B1u    0.471051    13Ag     0.518339     6B2g    0.558066
       6B3g    0.558066    14Ag     0.561884     3B1g    0.561885
       7B2g    0.587704     7B3g    0.587704    12B1u    0.617614
       8B3u    0.704771     8B2u    0.704771     3Au     0.716762
      13B1u    0.716771    14B1u    0.758774    15Ag     0.809481
       8B2g    0.840094     8B3g    0.840094    15B1u    0.950684
       9B3u    1.087493     9B2u    1.087493    16Ag     1.105178
       4B1g    1.105183    17Ag     1.181961    16B1u    1.203661
       4Au     1.203664     9B2g    1.220993     9B3g    1.220993
      17B1u    1.244611    18Ag     1.255367    10B3u    1.262083
      10B2u    1.262083     5B1g    1.277030    19Ag     1.277034
      20Ag     1.282099     6B1g    1.282121    11B3u    1.338555
      11B2u    1.338555    12B3u    1.377906    12B2u    1.377906
      10B2g    1.417099    10B3g    1.417099    13B3u    1.439014
      13B2u    1.439014    18B1u    1.445706     5Au     1.445725
       6Au     1.501555    19B1u    1.501578    11B2g    1.569830
      11B3g    1.569830    21Ag     1.573928    20B1u    1.583108
      12B2g    1.588763    12B3g    1.588763     7B1g    1.628384
      22Ag     1.628417    13B2g    1.696497    13B3g    1.696497
      21B1u    1.963652    14B3u    1.983148    14B2u    1.983148
      23Ag     2.087320    22B1u    2.103585     7Au     2.103598
      23B1u    2.121085    14B2g    2.415232    14B3g    2.415232
      24Ag     2.554478    24B1u    2.559442    25Ag     2.752902
       8B1g    2.752969    15B2u    2.840363    15B3u    2.840363
      25B1u    2.841972     8Au     2.842055    26Ag     3.025706
      27Ag     3.170293    15B3g    3.232012    15B2g    3.232012
       9B1g    3.287720    28Ag     3.287733    16B2u    3.292878
      16B3u    3.292878    17B2u    3.334265    17B3u    3.334265
      16B2g    3.396036    16B3g    3.396036    18B3u    3.452369
      18B2u    3.452369    10B1g    3.492877    29Ag     3.492904
      30Ag     3.495587    11B1g    3.495602    26B1u    3.519056
      27B1u    3.567168     9Au     3.567197    10Au     3.586813
      28B1u    3.586877    17B2g    3.666140    17B3g    3.666140
      18B2g    3.730155    18B3g    3.730155    19B3u    3.802736
      19B2u    3.802736    29B1u    3.914802    31Ag     3.999861
      30B1u    4.063282    11Au     4.063282    19B3g    4.507016
      19B2g    4.507016    31B1u    4.891652    20B2u    5.325187
      20B3u    5.325187    20B2g    5.979482    20B3g    5.979482
      32Ag     6.708355    32B1u    6.762579    12B1g    8.750255
      33Ag     8.750307    12Au     8.819857    33B1u    8.819907
      21B2u    8.866198    21B3u    8.866198    21B3g    9.211847
      21B2g    9.211847    34Ag     9.227644    34B1u    9.310652
      35Ag    17.799932    35B1u   20.366610

    Beta Occupied:

       1Ag   -89.253541     1B1u  -89.253541     2Ag    -8.165224
       2B1u   -8.164975     3Ag    -6.075248     3B1u   -6.074424
       1B3u   -6.067586     1B2u   -6.067586     1B2g   -6.067522
       1B3g   -6.067522     4Ag    -0.938323     4B1u   -0.688986
       5Ag    -0.470781     2B2u   -0.425537     2B3u   -0.425537

    Beta Virtual:

       2B2g   -0.060870     2B3g   -0.060870     5B1u    0.025091
       6Ag     0.047071     3B2u    0.054939     3B3u    0.054939
       7Ag     0.073612     3B3g    0.079894     3B2g    0.079894
       6B1u    0.100809     1B1g    0.146746     8Ag     0.146746
       7B1u    0.167778     9Ag     0.205344     4B2u    0.206573
       4B3u    0.206573     1Au     0.224994     8B1u    0.224998
       4B2g    0.245966     4B3g    0.245966     9B1u    0.259793
       5B2u    0.337404     5B3u    0.337404    10Ag     0.362750
       2B1g    0.400354    11Ag     0.400355     6B3u    0.411839
       6B2u    0.411839    10B1u    0.424335    12Ag     0.424460
       5B2g    0.449127     5B3g    0.449127     7B3u    0.464880
       7B2u    0.464880     2Au     0.501585    11B1u    0.501591
      13Ag     0.527462     3B1g    0.564048    14Ag     0.564049
       6B2g    0.565954     6B3g    0.565954     7B2g    0.579639
       7B3g    0.579639    12B1u    0.624334     8B3u    0.703491
       8B2u    0.703491     3Au     0.716113    13B1u    0.716123
      14B1u    0.762252    15Ag     0.823849     8B2g    0.854362
       8B3g    0.854362    15B1u    0.956080     9B3u    1.089353
       9B2u    1.089353    16Ag     1.127875     4B1g    1.127883
      17Ag     1.187681    16B1u    1.226661     4Au     1.226680
       9B2g    1.250961     9B3g    1.250961    17B1u    1.261413
      18Ag     1.263472    10B3u    1.264288    10B2u    1.264288
      19Ag     1.286121     5B1g    1.286138    20Ag     1.296139
       6B1g    1.296148    11B3u    1.384119    11B2u    1.384119
      12B3u    1.405716    12B2u    1.405716    18B1u    1.451991
       5Au     1.452020    10B2g    1.452142    10B3g    1.452142
      13B3u    1.455518    13B2u    1.455518     6Au     1.521607
      19B1u    1.521635    11B2g    1.576653    11B3g    1.576653
      21Ag     1.580021    20B1u    1.593447    12B2g    1.607187
      12B3g    1.607187     7B1g    1.635084    22Ag     1.635122
      13B2g    1.701350    13B3g    1.701350    21B1u    1.981587
      14B3u    1.993528    14B2u    1.993528    22B1u    2.119115
       7Au     2.119117    23B1u    2.135571    23Ag     2.135825
      14B2g    2.450938    14B3g    2.450938    24Ag     2.567622
      24B1u    2.598032    25Ag     2.809436     8B1g    2.809441
      15B2u    2.871361    15B3u    2.871361    25B1u    2.897130
       8Au     2.897150    26Ag     3.039163    27Ag     3.186809
      15B3g    3.263975    15B2g    3.263975    16B2u    3.305703
      16B3u    3.305703    28Ag     3.311194     9B1g    3.311200
      17B2u    3.410536    17B3u    3.410536    16B2g    3.474748
      16B3g    3.474748    18B3u    3.503395    18B2u    3.503395
      10B1g    3.543756    29Ag     3.543763    26B1u    3.545238
      11B1g    3.576064    30Ag     3.576078     9Au     3.636042
      27B1u    3.636059    10Au     3.646800    28B1u    3.646807
      17B2g    3.692558    17B3g    3.692558    18B2g    3.782712
      18B3g    3.782712    19B3u    3.840176    19B2u    3.840176
      29B1u    3.938882    31Ag     4.019256    30B1u    4.100432
      11Au     4.100437    19B3g    4.531138    19B2g    4.531138
      31B1u    4.900770    20B2u    5.378791    20B3u    5.378791
      20B2g    6.035224    20B3g    6.035224    32Ag     6.714593
      32B1u    6.769437    12B1g    8.782898    33Ag     8.782967
      12Au     8.853829    33B1u    8.853900    21B2u    8.882814
      21B3u    8.882814    21B3g    9.230965    21B2g    9.230965
      34Ag     9.243580    34B1u    9.326487    35Ag    17.813787
      35B1u   20.376779

    Final Occupation by Irrep:
             Ag   B1g   B2g   B3g    Au   B1u   B2u   B3u
    DOCC [     5,    0,    1,    1,    0,    4,    2,    2 ]
    SOCC [     0,    0,    1,    1,    0,    0,    0,    0 ]

  @DF-UKS Final Energy:  -796.37090746276544

   => Energetics <=

    Nuclear Repulsion Energy =             72.0408092439560903
    One-Electron Energy =               -1242.6741719868664404
    Two-Electron Energy =                 413.7060811532326170
    DFT Exchange-Correlation Energy =     -39.5771899251295167
    Empirical Dispersion Energy =           0.0000000000000000
    VV10 Nonlocal Energy =                  0.1335640520416626
    Total Energy =                       -796.3709074627655582

  UHF NO Occupations:
  HONO-2 :    2B3u 1.9979629
  HONO-1 :    2B3g 1.0000000
  HONO-0 :    2B2g 1.0000000
  LUNO+0 :    3B2u 0.0020371
  LUNO+1 :    3B3u 0.0020371
  LUNO+2 :    5B1u 0.0002688
  LUNO+3 :    6 Ag 0.0002104

Computation Completed

Properties will be evaluated at   0.000000,   0.000000,   0.000000 [a0]

Properties computed using the SCF density matrix

  Nuclear Dipole Moment: [e a0]
     X:     0.0000      Y:     0.0000      Z:     0.0000

  Electronic Dipole Moment: [e a0]
     X:     0.0000      Y:     0.0000      Z:     0.0000

  Dipole Moment: [e a0]
     X:     0.0000      Y:     0.0000      Z:     0.0000     Total:     0.0000

  Dipole Moment: [D]
     X:     0.0000      Y:     0.0000      Z:     0.0000     Total:     0.0000

*** tstop() called on bp1-compute00045.data.bp.acrc.priv at Tue Apr 27 16:57:52 2021
Module time:
	user time   =     324.20 seconds =       5.40 minutes
	system time =      13.96 seconds =       0.23 minutes
	total time  =         15 seconds =       0.25 minutes
Total time:
	user time   =    3913.67 seconds =      65.23 minutes
	system time =     220.24 seconds =       3.67 minutes
	total time  =        177 seconds =       2.95 minutes

         ----------------------------------------------------------
                                   FINDIF
                     R. A. King and Jonathon Misiewicz
         ---------------------------------------------------------

  Computing second-derivative from energies using projected,
  symmetry-adapted, cartesian coordinates.

  3 energies passed in, including the reference geometry.
    Using 3-point formula.
    Energy without displacement: -796.3709078950
    Check energies below for precision!
    0: -1 :      -796.3709077754
    0: 1  :      -796.3709074628

-------------------------------------------------------------

  ==> Harmonic Vibrational Analysis <==

  non-mass-weighted Hessian:       Symmetric? True   Hermitian? True   Lin Dep Dim?  5 (0)
  projection of translations (True) and rotations (True) removed 5 degrees of freedom (5)
  total projector:                 Symmetric? True   Hermitian? True   Lin Dep Dim?  5 (5)
  mass-weighted Hessian:           Symmetric? True   Hermitian? True   Lin Dep Dim?  5 (0)
  pre-proj  low-frequency mode:    0.0000  [cm^-1]
  pre-proj  low-frequency mode:    0.0000  [cm^-1]
  pre-proj  low-frequency mode:    0.0000  [cm^-1]
  pre-proj  low-frequency mode:    0.0000  [cm^-1]
  pre-proj  low-frequency mode:    0.0000  [cm^-1]
  pre-proj  all modes:['0.0000' '0.0000' '0.0000' '0.0000' '0.0000' '763.7267']
  projected mass-weighted Hessian: Symmetric? True   Hermitian? True   Lin Dep Dim?  5 (5)
  post-proj low-frequency mode:    0.0000i [cm^-1] (TR)
  post-proj low-frequency mode:    0.0000  [cm^-1] (TR)
  post-proj low-frequency mode:    0.0000  [cm^-1] (TR)
  post-proj low-frequency mode:    0.0000  [cm^-1] (TR)
  post-proj low-frequency mode:    0.0000  [cm^-1] (TR)
  post-proj  all modes:['0.0000i' '0.0000' '0.0000' '0.0000' '0.0000' '763.7267']

  Vibration                       6
  Freq [cm^-1]                 763.7267
  Irrep                           Ag
  Reduced mass [u]             31.9721
  Force const [mDyne/A]        10.9875
  Turning point v=0 [a0]        0.0702
  RMS dev v=0 [a0 u^1/2]        0.2808
  Char temp [K]               1098.8327
  ----------------------------------------------------------------------------------
      1   S                0.00  0.00  0.71
      2   S                0.00  0.00 -0.71

  ==> Thermochemistry Components <==

  Entropy, S
    Electronic S            2.183 [cal/(mol K)]        9.134 [J/(mol K)]       0.00347910 [mEh/K] (multiplicity = 3)
    Translational S        38.385 [cal/(mol K)]      160.603 [J/(mol K)]       0.06117054 [mEh/K] (mol. weight = 63.9441 [u], P = 101325.00 [Pa])
    Rotational S           13.615 [cal/(mol K)]       56.965 [J/(mol K)]       0.02169676 [mEh/K] (symmetry no. = 2)
    Vibrational S           0.239 [cal/(mol K)]        1.000 [J/(mol K)]       0.00038075 [mEh/K]
  Total S                  54.422 [cal/(mol K)]      227.702 [J/(mol K)]       0.08672715 [mEh/K]
  Correction S              0.000 [cal/(mol K)]        0.000 [J/(mol K)]       0.00000000 [mEh/K]

  Constant volume heat capacity, Cv
    Electronic Cv           0.000 [cal/(mol K)]        0.000 [J/(mol K)]       0.00000000 [mEh/K]
    Translational Cv        2.981 [cal/(mol K)]       12.472 [J/(mol K)]       0.00475022 [mEh/K]
    Rotational Cv           1.987 [cal/(mol K)]        8.314 [J/(mol K)]       0.00316681 [mEh/K]
    Vibrational Cv          0.712 [cal/(mol K)]        2.981 [J/(mol K)]       0.00113524 [mEh/K]
  Total Cv                  5.680 [cal/(mol K)]       23.767 [J/(mol K)]       0.00905227 [mEh/K]
  Correction Cv             0.000 [cal/(mol K)]        0.000 [J/(mol K)]       0.00000000 [mEh/K]

  Constant pressure heat capacity, Cp
    Electronic Cp           0.000 [cal/(mol K)]        0.000 [J/(mol K)]       0.00000000 [mEh/K]
    Translational Cp        4.968 [cal/(mol K)]       20.786 [J/(mol K)]       0.00791703 [mEh/K]
    Rotational Cp           1.987 [cal/(mol K)]        8.314 [J/(mol K)]       0.00316681 [mEh/K]
    Vibrational Cp          0.712 [cal/(mol K)]        2.981 [J/(mol K)]       0.00113524 [mEh/K]
  Total Cp                  7.668 [cal/(mol K)]       32.081 [J/(mol K)]       0.01221908 [mEh/K]
  Correction Cp             0.000 [cal/(mol K)]        0.000 [J/(mol K)]       0.00000000 [mEh/K]

  ==> Thermochemistry Energy Analysis <==

  Raw electronic energy, E0
  Total E0, Electronic energy at well bottom at 0 [K]                 -796.37090789 [Eh]

  Zero-point energy, ZPE_vib = Sum_i nu_i / 2
    Electronic ZPE          0.000 [kcal/mol]        0.000 [kJ/mol]       0.00000000 [Eh]
    Translational ZPE       0.000 [kcal/mol]        0.000 [kJ/mol]       0.00000000 [Eh]
    Rotational ZPE          0.000 [kcal/mol]        0.000 [kJ/mol]       0.00000000 [Eh]
    Vibrational ZPE         1.092 [kcal/mol]        4.568 [kJ/mol]       0.00173990 [Eh]         381.863 [cm^-1]
  Correction ZPE            1.092 [kcal/mol]        4.568 [kJ/mol]       0.00173990 [Eh]         381.863 [cm^-1]
  Total ZPE, Electronic energy at 0 [K]                               -796.36916800 [Eh]

  Thermal Energy, E (includes ZPE)
    Electronic E            0.000 [kcal/mol]        0.000 [kJ/mol]       0.00000000 [Eh]
    Translational E         0.889 [kcal/mol]        3.718 [kJ/mol]       0.00141628 [Eh]
    Rotational E            0.592 [kcal/mol]        2.479 [kJ/mol]       0.00094418 [Eh]
    Vibrational E           1.148 [kcal/mol]        4.803 [kJ/mol]       0.00182943 [Eh]
  Correction E              2.629 [kcal/mol]       11.001 [kJ/mol]       0.00418989 [Eh]
  Total E, Electronic energy at  298.15 [K]                           -796.36671800 [Eh]

  Enthalpy, H_trans = E_trans + k_B * T
    Electronic H            0.000 [kcal/mol]        0.000 [kJ/mol]       0.00000000 [Eh]
    Translational H         1.481 [kcal/mol]        6.197 [kJ/mol]       0.00236046 [Eh]
    Rotational H            0.592 [kcal/mol]        2.479 [kJ/mol]       0.00094418 [Eh]
    Vibrational H           1.148 [kcal/mol]        4.803 [kJ/mol]       0.00182943 [Eh]
  Correction H              3.222 [kcal/mol]       13.480 [kJ/mol]       0.00513408 [Eh]
  Total H, Enthalpy at  298.15 [K]                                    -796.36577382 [Eh]

  Gibbs free energy, G = H - T * S
    Electronic G           -0.651 [kcal/mol]       -2.723 [kJ/mol]      -0.00103729 [Eh]
    Translational G        -9.963 [kcal/mol]      -41.686 [kJ/mol]      -0.01587754 [Eh]
    Rotational G           -3.467 [kcal/mol]      -14.505 [kJ/mol]      -0.00552470 [Eh]
    Vibrational G           1.077 [kcal/mol]        4.505 [kJ/mol]       0.00171591 [Eh]
  Correction G            -13.004 [kcal/mol]      -54.410 [kJ/mol]      -0.02072362 [Eh]
  Total G, Free enthalpy at  298.15 [K]                               -796.39163152 [Eh]

    Psi4 stopped on: Tuesday, 27 April 2021 04:57PM
    Psi4 wall time for execution: 0:02:57.57

*** Psi4 exiting successfully. Buy a developer a beer!
