                               Psi4 1.3.2 release

  ==> Input File <==

--------------------------------------------------------------------------
memory 144 GB

molecule {
0 3
S 0.0000000000 0.0000000000 0.0000000000
O 0.0000000000 0.0000000000 1.4862145500
}

set reference uks
set basis aug-cc-pV(Q+d)Z

optimize("WB97M-V")
frequencies("WB97M-V")
--------------------------------------------------------------------------

    Molecular point group: c2v
  Charge       = 0
  Multiplicity = 3
  Basis Set: AUG-CC-PV(Q+D)Z
    Blend: AUG-CC-PV(Q+D)Z
  Basis Set: (AUG-CC-PV(Q+D)Z AUX)
    Blend: AUG-CC-PVQZ-JKFIT
  @DF-UKS Final Energy:  -473.38437590816903
    Total Energy =                       -473.3843759081690905
    Molecular point group: c2v
  Basis Set: AUG-CC-PV(Q+D)Z
    Blend: AUG-CC-PV(Q+D)Z
  Basis Set: (AUG-CC-PV(Q+D)Z AUX)
    Blend: AUG-CC-PVQZ-JKFIT
  @DF-UKS Final Energy:  -473.38435910768675
    Total Energy =                       -473.3843591076867483
  Basis Set: AUG-CC-PV(Q+D)Z
    Blend: AUG-CC-PV(Q+D)Z
  Basis Set: (AUG-CC-PV(Q+D)Z AUX)
    Blend: AUG-CC-PVQZ-JKFIT
  @DF-UKS Final Energy:  -473.38439139812306
    Total Energy =                       -473.3843913981230571
  Basis Set: AUG-CC-PV(Q+D)Z
    Blend: AUG-CC-PV(Q+D)Z
  Basis Set: (AUG-CC-PV(Q+D)Z AUX)
    Blend: AUG-CC-PVQZ-JKFIT
  @DF-UKS Final Energy:  -473.38446493803605
    Total Energy =                       -473.3844649380359897
  @DF-UKS Final Energy:  -473.38445941740684
    Total Energy =                       -473.3844594174069016
  @DF-UKS Final Energy:  -473.38446909737036
    Total Energy =                       -473.3844690973702996
  @DF-UKS Final Energy:  -473.38447347297461
    Total Energy =                       -473.3844734729746051
  @DF-UKS Final Energy:  -473.38447291994657
    Total Energy =                       -473.3844729199466315
  @DF-UKS Final Energy:  -473.38447264076927
    Total Energy =                       -473.3844726407692747
  **** Optimization is complete! (in 3 steps) ****
    Final optimized geometry and variables:
  @DF-UKS Final Energy:  -473.38447347297625
    Total Energy =                       -473.3844734729763104
  @DF-UKS Final Energy:  -473.38447291994640
    Total Energy =                       -473.3844729199465178
  Basis Set: AUG-CC-PV(Q+D)Z
    Blend: AUG-CC-PV(Q+D)Z
  Basis Set: (AUG-CC-PV(Q+D)Z AUX)
    Blend: AUG-CC-PVQZ-JKFIT
  @DF-UKS Final Energy:  -473.38447264045431
    Total Energy =                       -473.3844726404542484
  Basis Set: AUG-CC-PV(Q+D)Z
    Blend: AUG-CC-PV(Q+D)Z
  Basis Set: (AUG-CC-PV(Q+D)Z AUX)
    Blend: AUG-CC-PVQZ-JKFIT
  @DF-UKS Final Energy:  -473.38447347297586
    Total Energy =                       -473.3844734729758557
  Multiplicity = 3
  Basis Set: AUG-CC-PV(Q+D)Z
    Blend: AUG-CC-PV(Q+D)Z
  Basis Set: (AUG-CC-PV(Q+D)Z AUX)
    Blend: AUG-CC-PVQZ-JKFIT
  @DF-UKS Final Energy:  -473.38447291994726
    Total Energy =                       -473.3844729199473136
    Molecular point group: c2v

    Geometry (in Angstrom), charge = 0, multiplicity = 3:

       Center              X                  Y                   Z               Mass
    ------------   -----------------  -----------------  -----------------  -----------------
         S            0.000000000000     0.000000000000    -0.492055724697    31.972071174400
         O            0.000000000000     0.000000000000     0.983565153423    15.994914619570

  Charge       = 0
  Multiplicity = 3
  Basis Set: AUG-CC-PV(Q+D)Z
    Blend: AUG-CC-PV(Q+D)Z
  Basis Set: (AUG-CC-PV(Q+D)Z AUX)
    Blend: AUG-CC-PVQZ-JKFIT

    Orbital Energies [Eh]
    ---------------------

    Alpha Occupied:

       1A1   -89.302221     2A1   -19.407657     3A1    -8.210039
       1B1    -6.120529     1B2    -6.120529     4A1    -6.117392
       5A1    -1.224193     6A1    -0.803172     2B2    -0.570996
       2B1    -0.570996     7A1    -0.565431     3B2    -0.356588
       3B1    -0.356588

    Alpha Virtual:

       8A1     0.032579     9A1     0.037765     4B1     0.054987
       4B2     0.054987    10A1     0.104561    11A1     0.136408
       5B2     0.136491     5B1     0.136491    12A1     0.158572
       1A2     0.158572     6B1     0.232225     6B2     0.232225
      13A1     0.245256    14A1     0.259958     7B1     0.332060
       7B2     0.332060    15A1     0.356665    16A1     0.402375
       2A2     0.402376    17A1     0.452719     8B2     0.462225
       8B1     0.462225     3A2     0.467234    18A1     0.467236
       9B1     0.497555     9B2     0.497555    10B2     0.565817
      10B1     0.565817    19A1     0.583614    11B1     0.618131
      11B2     0.618131    20A1     0.631983     4A2     0.631992
      21A1     0.673532    22A1     0.721205    12B2     0.851087
      12B1     0.851087    23A1     0.958270    24A1     1.081333
       5A2     1.110546    25A1     1.110550    13B1     1.155719
      13B2     1.155719    26A1     1.161957    14B2     1.231073
      14B1     1.231073     6A2     1.233531    27A1     1.233533
      15B1     1.332417    15B2     1.332417    16B1     1.336472
      16B2     1.336472     7A2     1.337130    28A1     1.337139
      17B1     1.439723    17B2     1.439723    29A1     1.439761
       8A2     1.439774    30A1     1.486433    18B2     1.516311
      18B1     1.516311    31A1     1.535596    32A1     1.553123
       9A2     1.553124    19B2     1.572308    19B1     1.572308
      33A1     1.729934    20B1     1.916263    20B2     1.916263
      34A1     2.024486    35A1     2.045874    10A2     2.045874
      21B2     2.133275    21B1     2.133275    36A1     2.152653
      37A1     2.493099    22B1     2.711862    22B2     2.711862
      38A1     2.749865    11A2     2.749866    39A1     2.998550
      12A2     3.203541    40A1     3.203555    23B2     3.211066
      23B1     3.211066    41A1     3.234677    24B1     3.285493
      24B2     3.285493    25B2     3.316575    25B1     3.316575
      26B2     3.365716    26B1     3.365716    13A2     3.476203
      42A1     3.476258    43A1     3.494344    14A2     3.494369
      15A2     3.499488    44A1     3.499510    45A1     3.710673
      27B2     3.784725    27B1     3.784725    28B1     3.841943
      28B2     3.841943    46A1     3.898308    29B1     3.929642
      29B2     3.929642    47A1     4.030918    16A2     4.030949
      30B2     4.222810    30B1     4.222810    48A1     4.246521
      17A2     4.378855    49A1     4.378867    50A1     4.447627
      51A1     4.701566    18A2     4.701567    31B2     4.733663
      31B1     4.733663    32B2     5.094845    32B1     5.094845
      52A1     5.160070    53A1     5.674053    33B2     6.062567
      33B1     6.062567    54A1     7.491734    55A1     8.735210
      19A2     8.735257    34B1     8.941271    34B2     8.941271
      56A1     9.280250    20A2    10.191639    57A1    10.191985
      35B2    10.300473    35B1    10.300473    36B2    10.436133
      36B1    10.436133    37B2    10.498773    37B1    10.498773
      58A1    10.504059    21A2    10.504126    59A1    10.638724
      60A1    11.274016    38B1    11.383146    38B2    11.383146
      61A1    11.547267    22A2    11.547338    39B2    12.012262
      39B1    12.012262    62A1    12.276436    63A1    12.323494
      23A2    12.323591    40B2    12.754505    40B1    12.754505
      64A1    13.296623    65A1    20.570987    66A1    41.789519

    Beta Occupied:

       1A1   -89.294933     2A1   -19.386256     3A1    -8.202726
       4A1    -6.112976     1B1    -6.104742     1B2    -6.104742
       5A1    -1.185523     6A1    -0.739602     7A1    -0.530606
       2B1    -0.499627     2B2    -0.499627

    Beta Virtual:

       3B1    -0.045615     3B2    -0.045615     8A1     0.033878
       9A1     0.037181     4B1     0.055745     4B2     0.055745
      10A1     0.114864     5B2     0.139695     5B1     0.139695
      11A1     0.140865    12A1     0.160270     1A2     0.160271
       6B1     0.235354     6B2     0.235354    13A1     0.248703
      14A1     0.262041     7B1     0.335512     7B2     0.335512
      15A1     0.366132    16A1     0.428090     2A2     0.428091
      17A1     0.456900     3A2     0.476381    18A1     0.476381
       8B2     0.483860     8B1     0.483860     9B1     0.490240
       9B2     0.490240    10B1     0.584343    10B2     0.584343
      19A1     0.587045    11B1     0.617878    11B2     0.617878
      20A1     0.628924     4A2     0.628933    21A1     0.685079
      22A1     0.728563    12B2     0.860154    12B1     0.860154
      23A1     0.971456    24A1     1.085680     5A2     1.141195
      25A1     1.141197    26A1     1.178556    13B2     1.188193
      13B1     1.188193    14B2     1.230568    14B1     1.230568
       6A2     1.252285    27A1     1.252285     7A2     1.345728
      28A1     1.345732    15B2     1.352058    15B1     1.352058
      16B1     1.383530    16B2     1.383530    17B2     1.457019
      17B1     1.457019    29A1     1.461419     8A2     1.461427
      30A1     1.498878    18B2     1.537527    18B1     1.537527
      31A1     1.541639    32A1     1.557036     9A2     1.557048
      19B2     1.574570    19B1     1.574570    33A1     1.746552
      20B2     1.930612    20B1     1.930612    34A1     2.036609
      10A2     2.064511    35A1     2.064516    21B2     2.157573
      21B1     2.157573    36A1     2.194450    37A1     2.518006
      22B1     2.755248    22B2     2.755248    38A1     2.818012
      11A2     2.818026    39A1     3.017146    12A2     3.232318
      40A1     3.232323    23B1     3.244740    23B2     3.244740
      41A1     3.265565    24B2     3.328009    24B1     3.328009
      25B2     3.392097    25B1     3.392097    26B2     3.420727
      26B1     3.420727    13A2     3.482965    42A1     3.483022
      14A2     3.560418    43A1     3.560432    44A1     3.595947
      15A2     3.595968    45A1     3.741002    27B2     3.813206
      27B1     3.813206    28B1     3.872492    28B2     3.872492
      46A1     3.922924    29B1     3.969538    29B2     3.969538
      47A1     4.060684    16A2     4.060709    30B2     4.238168
      30B1     4.238168    48A1     4.259424    17A2     4.421143
      49A1     4.421149    50A1     4.482356    51A1     4.733301
      18A2     4.733306    31B2     4.771335    31B1     4.771335
      32B2     5.134652    32B1     5.134652    52A1     5.174495
      53A1     5.697713    33B2     6.114878    33B1     6.114878
      54A1     7.512485    55A1     8.775982    19A2     8.776022
      34B2     8.961885    34B1     8.961885    56A1     9.301575
      20A2    10.270793    57A1    10.271116    35B2    10.353011
      35B1    10.353011    36B1    10.489408    36B2    10.489408
      37B1    10.541245    37B2    10.541245    58A1    10.543279
      21A2    10.543327    59A1    10.669460    60A1    11.315834
      38B1    11.488854    38B2    11.488854    61A1    11.619565
      22A2    11.619648    39B1    12.061247    39B2    12.061247
      62A1    12.301378    63A1    12.440037    23A2    12.440151
      40B1    12.820650    40B2    12.820650    64A1    13.339990
      65A1    20.583234    66A1    41.815415

    Final Occupation by Irrep:
             A1    A2    B1    B2
    DOCC [     7,    0,    2,    2 ]
    SOCC [     0,    0,    1,    1 ]

  @DF-UKS Final Energy:  -473.38447264045465

   => Energetics <=

    Nuclear Repulsion Energy =             45.9024970235043241
    One-Electron Energy =                -743.8791073037900787
    Two-Electron Energy =                 250.5309594197359502
    DFT Exchange-Correlation Energy =     -26.0396141157319860
    Empirical Dispersion Energy =           0.0000000000000000
    VV10 Nonlocal Energy =                  0.1007923358271141
    Total Energy =                       -473.3844726404546464

  UHF NO Occupations:
  HONO-2 :    2 B2 1.9982529
  HONO-1 :    3 B2 1.0000000
  HONO-0 :    3 B1 1.0000000
  LUNO+0 :    4 B2 0.0017471
  LUNO+1 :    4 B1 0.0017471
  LUNO+2 :    8 A1 0.0003501
  LUNO+3 :    9 A1 0.0002312

Computation Completed

Properties will be evaluated at   0.000000,   0.000000,   0.000000 [a0]

Properties computed using the SCF density matrix

  Nuclear Dipole Moment: [e a0]
     X:     0.0000      Y:     0.0000      Z:    -0.0083

  Electronic Dipole Moment: [e a0]
     X:     0.0000      Y:     0.0000      Z:    -0.5980

  Dipole Moment: [e a0]
     X:     0.0000      Y:     0.0000      Z:    -0.6062     Total:     0.6062

  Dipole Moment: [D]
     X:     0.0000      Y:     0.0000      Z:    -1.5409     Total:     1.5409

*** tstop() called on bp1-compute00081.data.bp.acrc.priv at Fri Apr 23 08:53:11 2021
Module time:
	user time   =     365.86 seconds =       6.10 minutes
	system time =      17.72 seconds =       0.30 minutes
	total time  =         16 seconds =       0.27 minutes
Total time:
	user time   =    4287.40 seconds =      71.46 minutes
	system time =     202.51 seconds =       3.38 minutes
	total time  =        190 seconds =       3.17 minutes

         ----------------------------------------------------------
                                   FINDIF
                     R. A. King and Jonathon Misiewicz
         ---------------------------------------------------------

  Computing second-derivative from energies using projected,
  symmetry-adapted, cartesian coordinates.

  3 energies passed in, including the reference geometry.
    Using 3-point formula.
    Energy without displacement: -473.3844734730
    Check energies below for precision!
    0: -1 :      -473.3844729199
    0: 1  :      -473.3844726405

-------------------------------------------------------------

  ==> Harmonic Vibrational Analysis <==

  non-mass-weighted Hessian:       Symmetric? True   Hermitian? True   Lin Dep Dim?  5 (0)
  projection of translations (True) and rotations (True) removed 5 degrees of freedom (5)
  total projector:                 Symmetric? True   Hermitian? True   Lin Dep Dim?  5 (5)
  mass-weighted Hessian:           Symmetric? True   Hermitian? True   Lin Dep Dim?  5 (0)
  pre-proj  low-frequency mode:    0.0000  [cm^-1]
  pre-proj  low-frequency mode:    0.0000  [cm^-1]
  pre-proj  low-frequency mode:    0.0000  [cm^-1]
  pre-proj  low-frequency mode:    0.0000  [cm^-1]
  pre-proj  low-frequency mode:    0.0000  [cm^-1]
  pre-proj  all modes:['0.0000' '0.0000' '0.0000' '0.0000' '0.0000' '1210.1671']
  projected mass-weighted Hessian: Symmetric? True   Hermitian? True   Lin Dep Dim?  5 (5)
  post-proj low-frequency mode:    0.0000i [cm^-1] (TR)
  post-proj low-frequency mode:    0.0000  [cm^-1] (TR)
  post-proj low-frequency mode:    0.0000  [cm^-1] (TR)
  post-proj low-frequency mode:    0.0000  [cm^-1] (TR)
  post-proj low-frequency mode:    0.0000  [cm^-1] (TR)
  post-proj  all modes:['0.0000i' '0.0000' '0.0000' '0.0000' '0.0000' '1210.1671']

  Vibration                       6
  Freq [cm^-1]                1210.1671
  Irrep                           A1
  Reduced mass [u]             19.1932
  Force const [mDyne/A]        16.5611
  Turning point v=0 [a0]        0.0720
  RMS dev v=0 [a0 u^1/2]        0.2230
  Char temp [K]               1741.1610
  ----------------------------------------------------------------------------------
      1   S                0.00  0.00 -0.45
      2   O                0.00  0.00  0.89

  ==> Thermochemistry Components <==

  Entropy, S
    Electronic S            2.183 [cal/(mol K)]        9.134 [J/(mol K)]       0.00347910 [mEh/K] (multiplicity = 3)
    Translational S        37.528 [cal/(mol K)]      157.018 [J/(mol K)]       0.05980487 [mEh/K] (mol. weight = 47.9670 [u], P = 101325.00 [Pa])
    Rotational S           13.225 [cal/(mol K)]       55.332 [J/(mol K)]       0.02107473 [mEh/K] (symmetry no. = 1)
    Vibrational S           0.040 [cal/(mol K)]        0.166 [J/(mol K)]       0.00006319 [mEh/K]
  Total S                  52.976 [cal/(mol K)]      221.650 [J/(mol K)]       0.08442188 [mEh/K]
  Correction S              0.000 [cal/(mol K)]        0.000 [J/(mol K)]       0.00000000 [mEh/K]

  Constant volume heat capacity, Cv
    Electronic Cv           0.000 [cal/(mol K)]        0.000 [J/(mol K)]       0.00000000 [mEh/K]
    Translational Cv        2.981 [cal/(mol K)]       12.472 [J/(mol K)]       0.00475022 [mEh/K]
    Rotational Cv           1.987 [cal/(mol K)]        8.314 [J/(mol K)]       0.00316681 [mEh/K]
    Vibrational Cv          0.198 [cal/(mol K)]        0.830 [J/(mol K)]       0.00031603 [mEh/K]
  Total Cv                  5.166 [cal/(mol K)]       21.616 [J/(mol K)]       0.00823306 [mEh/K]
  Correction Cv             0.000 [cal/(mol K)]        0.000 [J/(mol K)]       0.00000000 [mEh/K]

  Constant pressure heat capacity, Cp
    Electronic Cp           0.000 [cal/(mol K)]        0.000 [J/(mol K)]       0.00000000 [mEh/K]
    Translational Cp        4.968 [cal/(mol K)]       20.786 [J/(mol K)]       0.00791703 [mEh/K]
    Rotational Cp           1.987 [cal/(mol K)]        8.314 [J/(mol K)]       0.00316681 [mEh/K]
    Vibrational Cp          0.198 [cal/(mol K)]        0.830 [J/(mol K)]       0.00031603 [mEh/K]
  Total Cp                  7.154 [cal/(mol K)]       29.930 [J/(mol K)]       0.01139987 [mEh/K]
  Correction Cp             0.000 [cal/(mol K)]        0.000 [J/(mol K)]       0.00000000 [mEh/K]

  ==> Thermochemistry Energy Analysis <==

  Raw electronic energy, E0
  Total E0, Electronic energy at well bottom at 0 [K]                 -473.38447347 [Eh]

  Zero-point energy, ZPE_vib = Sum_i nu_i / 2
    Electronic ZPE          0.000 [kcal/mol]        0.000 [kJ/mol]       0.00000000 [Eh]
    Translational ZPE       0.000 [kcal/mol]        0.000 [kJ/mol]       0.00000000 [Eh]
    Rotational ZPE          0.000 [kcal/mol]        0.000 [kJ/mol]       0.00000000 [Eh]
    Vibrational ZPE         1.730 [kcal/mol]        7.238 [kJ/mol]       0.00275696 [Eh]         605.084 [cm^-1]
  Correction ZPE            1.730 [kcal/mol]        7.238 [kJ/mol]       0.00275696 [Eh]         605.084 [cm^-1]
  Total ZPE, Electronic energy at 0 [K]                               -473.38171651 [Eh]

  Thermal Energy, E (includes ZPE)
    Electronic E            0.000 [kcal/mol]        0.000 [kJ/mol]       0.00000000 [Eh]
    Translational E         0.889 [kcal/mol]        3.718 [kJ/mol]       0.00141628 [Eh]
    Rotational E            0.592 [kcal/mol]        2.479 [kJ/mol]       0.00094418 [Eh]
    Vibrational E           1.740 [kcal/mol]        7.281 [kJ/mol]       0.00277305 [Eh]
  Correction E              3.221 [kcal/mol]       13.478 [kJ/mol]       0.00513351 [Eh]
  Total E, Electronic energy at  298.15 [K]                           -473.37933996 [Eh]

  Enthalpy, H_trans = E_trans + k_B * T
    Electronic H            0.000 [kcal/mol]        0.000 [kJ/mol]       0.00000000 [Eh]
    Translational H         1.481 [kcal/mol]        6.197 [kJ/mol]       0.00236046 [Eh]
    Rotational H            0.592 [kcal/mol]        2.479 [kJ/mol]       0.00094418 [Eh]
    Vibrational H           1.740 [kcal/mol]        7.281 [kJ/mol]       0.00277305 [Eh]
  Correction H              3.814 [kcal/mol]       15.957 [kJ/mol]       0.00607770 [Eh]
  Total H, Enthalpy at  298.15 [K]                                    -473.37839578 [Eh]

  Gibbs free energy, G = H - T * S
    Electronic G           -0.651 [kcal/mol]       -2.723 [kJ/mol]      -0.00103729 [Eh]
    Translational G        -9.708 [kcal/mol]      -40.617 [kJ/mol]      -0.01547036 [Eh]
    Rotational G           -3.350 [kcal/mol]      -14.018 [kJ/mol]      -0.00533925 [Eh]
    Vibrational G           1.728 [kcal/mol]        7.231 [kJ/mol]       0.00275421 [Eh]
  Correction G            -11.981 [kcal/mol]      -50.128 [kJ/mol]      -0.01909269 [Eh]
  Total G, Free enthalpy at  298.15 [K]                               -473.40356616 [Eh]

    Psi4 stopped on: Friday, 23 April 2021 08:53AM
    Psi4 wall time for execution: 0:03:10.81

*** Psi4 exiting successfully. Buy a developer a beer!
