                               Psi4 1.3.2 release

  ==> Input File <==

--------------------------------------------------------------------------
memory 144 GB

molecule {
0 1
B 0.0000000000 0.0000000000 0.0000000000
H 0.0000000000 0.0000000000 1.1899000000
H 1.0304836280 0.0000000000 -0.5949500000
H -1.0304836280 -0.0000000000 -0.5949500000
}

set dynamic_level 1
set basis cc-pV(Q+d)Z

optimize("wB97X-V")
frequencies("wB97X-V")
--------------------------------------------------------------------------

    Molecular point group: c2v
  Charge       = 0
  Multiplicity = 1
  Basis Set: CC-PV(Q+D)Z
    Blend: CC-PV(Q+D)Z
  Basis Set: (CC-PV(Q+D)Z AUX)
    Blend: CC-PVQZ-JKFIT
  @DF-RKS Final Energy:   -26.60751878829410
    Total Energy =                        -26.6075187882941044
    Molecular point group: c2v
  Basis Set: CC-PV(Q+D)Z
    Blend: CC-PV(Q+D)Z
  Basis Set: (CC-PV(Q+D)Z AUX)
    Blend: CC-PVQZ-JKFIT
  @DF-RKS Final Energy:   -26.60751658987930
    Total Energy =                        -26.6075165898792960
  Basis Set: CC-PV(Q+D)Z
    Blend: CC-PV(Q+D)Z
  Basis Set: (CC-PV(Q+D)Z AUX)
    Blend: CC-PVQZ-JKFIT
  @DF-RKS Final Energy:   -26.60751657028710
    Total Energy =                        -26.6075165702870997
  Basis Set: CC-PV(Q+D)Z
    Blend: CC-PV(Q+D)Z
  Basis Set: (CC-PV(Q+D)Z AUX)
    Blend: CC-PVQZ-JKFIT
  @DF-RKS Final Energy:   -26.60750732782520
    Total Energy =                        -26.6075073278251999
  @DF-RKS Final Energy:   -26.60752512525445
    Total Energy =                        -26.6075251252544476
  @DF-RKS Final Energy:   -26.60750733306813
    Total Energy =                        -26.6075073330681278
  @DF-RKS Final Energy:   -26.60752511990397
    Total Energy =                        -26.6075251199039684
  @DF-RKS Final Energy:   -26.60753136067544
    Total Energy =                        -26.6075313606754413
  @DF-RKS Final Energy:   -26.60752918082125
    Total Energy =                        -26.6075291808212526
  @DF-RKS Final Energy:   -26.60752917667125
    Total Energy =                        -26.6075291766712532
  @DF-RKS Final Energy:   -26.60752878339629
    Total Energy =                        -26.6075287833962904
  @DF-RKS Final Energy:   -26.60752888092985
    Total Energy =                        -26.6075288809298485
  @DF-RKS Final Energy:   -26.60752878204667
    Total Energy =                        -26.6075287820466642
  @DF-RKS Final Energy:   -26.60752888200907
    Total Energy =                        -26.6075288820090670
  **** Optimization is complete! (in 2 steps) ****
    Final optimized geometry and variables:
  @DF-RKS Final Energy:   -26.60753136068017
    Total Energy =                        -26.6075313606801735
  @DF-RKS Final Energy:   -26.60752918081803
    Total Energy =                        -26.6075291808180232
  @DF-RKS Final Energy:   -26.60752917665048
    Total Energy =                        -26.6075291766504769
  @DF-RKS Final Energy:   -26.60752878338053
    Total Energy =                        -26.6075287833805270
  @DF-RKS Final Energy:   -26.60752888092117
    Total Energy =                        -26.6075288809211692
  @DF-RKS Final Energy:   -26.60752878211133
    Total Energy =                        -26.6075287821113378
  @DF-RKS Final Energy:   -26.60752888205317
    Total Energy =                        -26.6075288820531739
  @DF-RKS Final Energy:   -26.60753136068017
    Total Energy =                        -26.6075313606801700
  @DF-RKS Final Energy:   -26.60752918081799
    Total Energy =                        -26.6075291808179877
  @DF-RKS Final Energy:   -26.60752917665056
    Total Energy =                        -26.6075291766505551
  @DF-RKS Final Energy:   -26.60752878338050
    Total Energy =                        -26.6075287833805021
  @DF-RKS Final Energy:   -26.60752888092112
    Total Energy =                        -26.6075288809211266
  @DF-RKS Final Energy:   -26.60752878211139
    Total Energy =                        -26.6075287821113875
  @DF-RKS Final Energy:   -26.60752888205318
    Total Energy =                        -26.6075288820531810
  @DF-RKS Final Energy:   -26.60752862871336
    Total Energy =                        -26.6075286287133572
  @DF-RKS Final Energy:   -26.60752854124982
    Total Energy =                        -26.6075285412498204
  @DF-RKS Final Energy:   -26.60752477833228
    Total Energy =                        -26.6075247783322837
  @DF-RKS Final Energy:   -26.60752465176758
    Total Energy =                        -26.6075246517675765
  @DF-RKS Final Energy:   -26.60752524176138
    Total Energy =                        -26.6075252417613797
  @DF-RKS Final Energy:   -26.60752502776992
    Total Energy =                        -26.6075250277699240
  @DF-RKS Final Energy:   -26.60752917878663
    Total Energy =                        -26.6075291787866348
  Basis Set: CC-PV(Q+D)Z
    Blend: CC-PV(Q+D)Z
  Basis Set: (CC-PV(Q+D)Z AUX)
    Blend: CC-PVQZ-JKFIT
  @DF-RKS Final Energy:   -26.60752952598919
    Total Energy =                        -26.6075295259891895
  Basis Set: CC-PV(Q+D)Z
    Blend: CC-PV(Q+D)Z
  Basis Set: (CC-PV(Q+D)Z AUX)
    Blend: CC-PVQZ-JKFIT
  @DF-RKS Final Energy:   -26.60752460721528
    Total Energy =                        -26.6075246072152751
  Multiplicity = 1
  Basis Set: CC-PV(Q+D)Z
    Blend: CC-PV(Q+D)Z
  Basis Set: (CC-PV(Q+D)Z AUX)
    Blend: CC-PVQZ-JKFIT
  @DF-RKS Final Energy:   -26.60752460720631
    Total Energy =                        -26.6075246072063081
    Molecular point group: cs

    Geometry (in Angstrom), charge = 0, multiplicity = 1:

       Center              X                  Y                   Z               Mass
    ------------   -----------------  -----------------  -----------------  -----------------
         B            0.000000000000    -0.000370145531    -0.000000667042    11.009305360000
         H            0.000000000000     0.001347794806     1.192938326067     1.007825032230
         H            1.033112962243     0.001347805300    -0.596465519710     1.007825032230
         H           -1.033112962243     0.001347805300    -0.596465519710     1.007825032230

  Charge       = 0
  Multiplicity = 1
  Basis Set: CC-PV(Q+D)Z
    Blend: CC-PV(Q+D)Z
  Basis Set: (CC-PV(Q+D)Z AUX)
    Blend: CC-PVQZ-JKFIT

    Orbital Energies [Eh]
    ---------------------

    Doubly Occupied:

       1Ap    -6.863799     2Ap    -0.636887     1App   -0.459518
       3Ap    -0.459518

  @DF-RKS Final Energy:   -26.60753072958929

   => Energetics <=

    Nuclear Repulsion Energy =              7.4222018432222372
    One-Electron Energy =                 -49.0745289953722192
    Two-Electron Energy =                  18.3328027111363738
    DFT Exchange-Correlation Energy =      -3.3218579061682045
    Empirical Dispersion Energy =           0.0000000000000000
    VV10 Nonlocal Energy =                  0.0338516175925192
    Total Energy =                        -26.6075307295892927

  Dipole Moment: [D]
     X:     0.0000      Y:    -0.0037      Z:     0.0000     Total:     0.0037

  Vibration                       7                   8                   9
  Freq [cm^-1]                1153.0123           1155.0352           1207.4777
  Irrep                           B1                  B2                  A1
  Reduced mass [u]              1.1021              1.2531              1.1068
  Force const [mDyne/A]         0.8633              0.9850              0.9507

  Vibration                       10                  11                  12
  Freq [cm^-1]                2565.2863           2676.0972           2695.2694
  Irrep                           A1                  B1                  A1
  Reduced mass [u]              1.0078              1.1326              1.1277
  Force const [mDyne/A]         3.9076              4.7790              4.8269

  ==> Thermochemistry Components <==

  Entropy, S
    Electronic S            0.000 [cal/(mol K)]        0.000 [J/(mol K)]       0.00000000 [mEh/K] (multiplicity = 1)
    Translational S        33.864 [cal/(mol K)]      141.688 [J/(mol K)]       0.05396630 [mEh/K] (mol. weight = 14.0328 [u], P = 101325.00 [Pa])
    Rotational S           13.192 [cal/(mol K)]       55.195 [J/(mol K)]       0.02102266 [mEh/K] (symmetry no. = 2)
    Vibrational S           0.140 [cal/(mol K)]        0.587 [J/(mol K)]       0.00022354 [mEh/K]
  Total S                  47.197 [cal/(mol K)]      197.470 [J/(mol K)]       0.07521250 [mEh/K]
  Correction S              0.000 [cal/(mol K)]        0.000 [J/(mol K)]       0.00000000 [mEh/K]

  Constant volume heat capacity, Cv
    Electronic Cv           0.000 [cal/(mol K)]        0.000 [J/(mol K)]       0.00000000 [mEh/K]
    Translational Cv        2.981 [cal/(mol K)]       12.472 [J/(mol K)]       0.00475022 [mEh/K]
    Rotational Cv           2.981 [cal/(mol K)]       12.472 [J/(mol K)]       0.00475022 [mEh/K]
    Vibrational Cv          0.677 [cal/(mol K)]        2.831 [J/(mol K)]       0.00107832 [mEh/K]
  Total Cv                  6.638 [cal/(mol K)]       27.775 [J/(mol K)]       0.01057875 [mEh/K]
  Correction Cv             0.000 [cal/(mol K)]        0.000 [J/(mol K)]       0.00000000 [mEh/K]

  Constant pressure heat capacity, Cp
    Electronic Cp           0.000 [cal/(mol K)]        0.000 [J/(mol K)]       0.00000000 [mEh/K]
    Translational Cp        4.968 [cal/(mol K)]       20.786 [J/(mol K)]       0.00791703 [mEh/K]
    Rotational Cp           2.981 [cal/(mol K)]       12.472 [J/(mol K)]       0.00475022 [mEh/K]
    Vibrational Cp          0.677 [cal/(mol K)]        2.831 [J/(mol K)]       0.00107832 [mEh/K]
  Total Cp                  8.625 [cal/(mol K)]       36.089 [J/(mol K)]       0.01374556 [mEh/K]
  Correction Cp             0.000 [cal/(mol K)]        0.000 [J/(mol K)]       0.00000000 [mEh/K]

  ==> Thermochemistry Energy Analysis <==

  Raw electronic energy, E0
  Total E0, Electronic energy at well bottom at 0 [K]                  -26.60753136 [Eh]

  Zero-point energy, ZPE_vib = Sum_i nu_i / 2
    Electronic ZPE          0.000 [kcal/mol]        0.000 [kJ/mol]       0.00000000 [Eh]
    Translational ZPE       0.000 [kcal/mol]        0.000 [kJ/mol]       0.00000000 [Eh]
    Rotational ZPE          0.000 [kcal/mol]        0.000 [kJ/mol]       0.00000000 [Eh]
    Vibrational ZPE        16.372 [kcal/mol]       68.499 [kJ/mol]       0.02608998 [Eh]        5726.089 [cm^-1]
  Correction ZPE           16.372 [kcal/mol]       68.499 [kJ/mol]       0.02608998 [Eh]        5726.089 [cm^-1]
  Total ZPE, Electronic energy at 0 [K]                                -26.58144138 [Eh]

  Thermal Energy, E (includes ZPE)
    Electronic E            0.000 [kcal/mol]        0.000 [kJ/mol]       0.00000000 [Eh]
    Translational E         0.889 [kcal/mol]        3.718 [kJ/mol]       0.00141628 [Eh]
    Rotational E            0.889 [kcal/mol]        3.718 [kJ/mol]       0.00141628 [Eh]
    Vibrational E          16.407 [kcal/mol]       68.648 [kJ/mol]       0.02614662 [Eh]
  Correction E             18.185 [kcal/mol]       76.085 [kJ/mol]       0.02897917 [Eh]
  Total E, Electronic energy at  298.15 [K]                            -26.57855219 [Eh]

  Enthalpy, H_trans = E_trans + k_B * T
    Electronic H            0.000 [kcal/mol]        0.000 [kJ/mol]       0.00000000 [Eh]
    Translational H         1.481 [kcal/mol]        6.197 [kJ/mol]       0.00236046 [Eh]
    Rotational H            0.889 [kcal/mol]        3.718 [kJ/mol]       0.00141628 [Eh]
    Vibrational H          16.407 [kcal/mol]       68.648 [kJ/mol]       0.02614662 [Eh]
  Correction H             18.777 [kcal/mol]       78.564 [kJ/mol]       0.02992336 [Eh]
  Total H, Enthalpy at  298.15 [K]                                     -26.57760800 [Eh]

  Gibbs free energy, G = H - T * S
    Electronic G            0.000 [kcal/mol]        0.000 [kJ/mol]       0.00000000 [Eh]
    Translational G        -8.615 [kcal/mol]      -36.047 [kJ/mol]      -0.01372959 [Eh]
    Rotational G           -3.044 [kcal/mol]      -12.738 [kJ/mol]      -0.00485163 [Eh]
    Vibrational G          16.365 [kcal/mol]       68.473 [kJ/mol]       0.02607997 [Eh]
  Correction G              4.706 [kcal/mol]       19.688 [kJ/mol]       0.00749875 [Eh]
  Total G, Free enthalpy at  298.15 [K]                                -26.60003261 [Eh]

*** Psi4 exiting successfully. Buy a developer a beer!
