                               Psi4 1.3.2 release

  ==> Input File <==

--------------------------------------------------------------------------
memory 144 GB

molecule {
0 1
C 0.0000000000 0.0000000000 0.0000000000
C 0.0000000000 0.0000000000 1.2065000000
H 0.0000000000 -0.0000000000 2.2699000000
H -0.0000000000 -0.0000000000 -1.0634000000
}

set dynamic_level 1
set basis cc-pV(Q+d)Z

optimize("wB97X-V")
frequencies("wB97X-V")
--------------------------------------------------------------------------

    Molecular point group: d2h
  Charge       = 0
  Multiplicity = 1
  Basis Set: CC-PV(Q+D)Z
    Blend: CC-PV(Q+D)Z
  Basis Set: (CC-PV(Q+D)Z AUX)
    Blend: CC-PVQZ-JKFIT
  @DF-RKS Final Energy:   -77.33542431580977
    Total Energy =                        -77.3354243158097745
    Molecular point group: d2h
  Basis Set: CC-PV(Q+D)Z
    Blend: CC-PV(Q+D)Z
  Basis Set: (CC-PV(Q+D)Z AUX)
    Blend: CC-PVQZ-JKFIT
  @DF-RKS Final Energy:   -77.33536963138741
    Total Energy =                        -77.3353696313874224
  Basis Set: CC-PV(Q+D)Z
    Blend: CC-PV(Q+D)Z
  Basis Set: (CC-PV(Q+D)Z AUX)
    Blend: CC-PVQZ-JKFIT
  @DF-RKS Final Energy:   -77.33547359448337
    Total Energy =                        -77.3354735944833891
  Basis Set: CC-PV(Q+D)Z
    Blend: CC-PV(Q+D)Z
  Basis Set: (CC-PV(Q+D)Z AUX)
    Blend: CC-PVQZ-JKFIT
  @DF-RKS Final Energy:   -77.33540685528092
    Total Energy =                        -77.3354068552809224
  @DF-RKS Final Energy:   -77.33543148344253
    Total Energy =                        -77.3354314834425338
  @DF-RKS Final Energy:   -77.33568361520629
    Total Energy =                        -77.3356836152062925
  @DF-RKS Final Energy:   -77.33568615401781
    Total Energy =                        -77.3356861540178073
  @DF-RKS Final Energy:   -77.33567536509148
    Total Energy =                        -77.3356753650914754
  @DF-RKS Final Energy:   -77.33568049987423
    Total Energy =                        -77.3356804998742149
  @DF-RKS Final Energy:   -77.33567657201843
    Total Energy =                        -77.3356765720184427
  @DF-RKS Final Energy:   -77.33568620794829
    Total Energy =                        -77.3356862079482852
  @DF-RKS Final Energy:   -77.33568320692483
    Total Energy =                        -77.3356832069248270
  @DF-RKS Final Energy:   -77.33568352335115
    Total Energy =                        -77.3356835233511362
  @DF-RKS Final Energy:   -77.33568107858656
    Total Energy =                        -77.3356810785865605
  @DF-RKS Final Energy:   -77.33568116435413
    Total Energy =                        -77.3356811643541278
  **** Optimization is complete! (in 3 steps) ****
    Final optimized geometry and variables:
  @DF-RKS Final Energy:   -77.33568620794868
    Total Energy =                        -77.3356862079486689
  @DF-RKS Final Energy:   -77.33568320692538
    Total Energy =                        -77.3356832069253670
  @DF-RKS Final Energy:   -77.33568352335163
    Total Energy =                        -77.3356835233516335
  @DF-RKS Final Energy:   -77.33568107858640
    Total Energy =                        -77.3356810785863900
  @DF-RKS Final Energy:   -77.33568116435411
    Total Energy =                        -77.3356811643541278
  @DF-RKS Final Energy:   -77.33568620794867
    Total Energy =                        -77.3356862079486689
  @DF-RKS Final Energy:   -77.33568320692544
    Total Energy =                        -77.3356832069254239
  @DF-RKS Final Energy:   -77.33568352335170
    Total Energy =                        -77.3356835233517046
  @DF-RKS Final Energy:   -77.33568107858676
    Total Energy =                        -77.3356810785867452
  @DF-RKS Final Energy:   -77.33568116435434
    Total Energy =                        -77.3356811643543409
  @DF-RKS Final Energy:   -77.33567545722511
    Total Energy =                        -77.3356754572251077
  @DF-RKS Final Energy:   -77.33567502413902
    Total Energy =                        -77.3356750241390358
  @DF-RKS Final Energy:   -77.33568597588430
    Total Energy =                        -77.3356859758843029
  Basis Set: CC-PV(Q+D)Z
    Blend: CC-PV(Q+D)Z
  Basis Set: (CC-PV(Q+D)Z AUX)
    Blend: CC-PVQZ-JKFIT
  @DF-RKS Final Energy:   -77.33568597907228
    Total Energy =                        -77.3356859790722808
  Basis Set: CC-PV(Q+D)Z
    Blend: CC-PV(Q+D)Z
  Basis Set: (CC-PV(Q+D)Z AUX)
    Blend: CC-PVQZ-JKFIT
  @DF-RKS Final Energy:   -77.33568068395591
    Total Energy =                        -77.3356806839558999
  Multiplicity = 1
  Basis Set: CC-PV(Q+D)Z
    Blend: CC-PV(Q+D)Z
  Basis Set: (CC-PV(Q+D)Z AUX)
    Blend: CC-PVQZ-JKFIT
  @DF-RKS Final Energy:   -77.33568591614669
    Total Energy =                        -77.3356859161466872
    Molecular point group: c2v

    Geometry (in Angstrom), charge = 0, multiplicity = 1:

       Center              X                  Y                   Z               Mass
    ------------   -----------------  -----------------  -----------------  -----------------
         C           -0.000150333491     0.000000000000    -0.597636374478    12.000000000000
         C           -0.000150333491     0.000000000000     0.597636374478    12.000000000000
         H            0.001789995126     0.000000000000     1.663111127544     1.007825032230
         H            0.001789995126     0.000000000000    -1.663111127544     1.007825032230

  Charge       = 0
  Multiplicity = 1
  Basis Set: CC-PV(Q+D)Z
    Blend: CC-PV(Q+D)Z
  Basis Set: (CC-PV(Q+D)Z AUX)
    Blend: CC-PVQZ-JKFIT

    Orbital Energies [Eh]
    ---------------------

    Doubly Occupied:

       1A1   -10.276446     1B2   -10.273779     2A1    -0.885961
       2B2    -0.685411     3A1    -0.608611     1B1    -0.400290
       4A1    -0.400290

  @DF-RKS Final Energy:   -77.33568591781462

   => Energetics <=

    Nuclear Repulsion Energy =             24.8659489271653626
    One-Electron Energy =                -152.1026130475688092
    Two-Electron Energy =                  57.7373466200499976
    DFT Exchange-Correlation Energy =      -7.8941015923522189
    Empirical Dispersion Energy =           0.0000000000000000
    VV10 Nonlocal Energy =                  0.0577331748910547
    Total Energy =                        -77.3356859178146010

  Dipole Moment: [D]
     X:     0.0040      Y:     0.0000      Z:    -0.0000     Total:     0.0040

  Vibration                       6                   7                   8
  Freq [cm^-1]                 695.5843            700.4119            783.1566
  Irrep                          B3g                 B2g                 B3u
  Reduced mass [u]              1.5772              1.5772              1.0848
  Force const [mDyne/A]         0.4496              0.4559              0.3920

  Vibration                       9                   10                  11
  Freq [cm^-1]                 785.4045           2095.0502           3417.2427
  Irrep                          B2u                  Ag                 B1u
  Reduced mass [u]              1.0848              3.7341              1.0848
  Force const [mDyne/A]         0.3943              9.6566              7.4638

  Vibration                       12
  Freq [cm^-1]                3517.5320
  Irrep                           Ag
  Reduced mass [u]              1.2380
  Force const [mDyne/A]         9.0249

  ==> Thermochemistry Components <==

  Entropy, S
    Electronic S            0.000 [cal/(mol K)]        0.000 [J/(mol K)]       0.00000000 [mEh/K] (multiplicity = 1)
    Translational S        35.704 [cal/(mol K)]      149.387 [J/(mol K)]       0.05689862 [mEh/K] (mol. weight = 26.0157 [u], P = 101325.00 [Pa])
    Rotational S           10.861 [cal/(mol K)]       45.442 [J/(mol K)]       0.01730779 [mEh/K] (symmetry no. = 2)
    Vibrational S           1.059 [cal/(mol K)]        4.430 [J/(mol K)]       0.00168733 [mEh/K]
  Total S                  47.624 [cal/(mol K)]      199.259 [J/(mol K)]       0.07589374 [mEh/K]
  Correction S              0.000 [cal/(mol K)]        0.000 [J/(mol K)]       0.00000000 [mEh/K]

  Constant volume heat capacity, Cv
    Electronic Cv           0.000 [cal/(mol K)]        0.000 [J/(mol K)]       0.00000000 [mEh/K]
    Translational Cv        2.981 [cal/(mol K)]       12.472 [J/(mol K)]       0.00475022 [mEh/K]
    Rotational Cv           1.987 [cal/(mol K)]        8.314 [J/(mol K)]       0.00316681 [mEh/K]
    Vibrational Cv          3.028 [cal/(mol K)]       12.671 [J/(mol K)]       0.00482617 [mEh/K]
  Total Cv                  7.996 [cal/(mol K)]       33.457 [J/(mol K)]       0.01274319 [mEh/K]
  Correction Cv             0.000 [cal/(mol K)]        0.000 [J/(mol K)]       0.00000000 [mEh/K]

  Constant pressure heat capacity, Cp
    Electronic Cp           0.000 [cal/(mol K)]        0.000 [J/(mol K)]       0.00000000 [mEh/K]
    Translational Cp        4.968 [cal/(mol K)]       20.786 [J/(mol K)]       0.00791703 [mEh/K]
    Rotational Cp           1.987 [cal/(mol K)]        8.314 [J/(mol K)]       0.00316681 [mEh/K]
    Vibrational Cp          3.028 [cal/(mol K)]       12.671 [J/(mol K)]       0.00482617 [mEh/K]
  Total Cp                  9.984 [cal/(mol K)]       41.772 [J/(mol K)]       0.01591000 [mEh/K]
  Correction Cp             0.000 [cal/(mol K)]        0.000 [J/(mol K)]       0.00000000 [mEh/K]

  ==> Thermochemistry Energy Analysis <==

  Raw electronic energy, E0
  Total E0, Electronic energy at well bottom at 0 [K]                  -77.33568621 [Eh]

  Zero-point energy, ZPE_vib = Sum_i nu_i / 2
    Electronic ZPE          0.000 [kcal/mol]        0.000 [kJ/mol]       0.00000000 [Eh]
    Translational ZPE       0.000 [kcal/mol]        0.000 [kJ/mol]       0.00000000 [Eh]
    Rotational ZPE          0.000 [kcal/mol]        0.000 [kJ/mol]       0.00000000 [Eh]
    Vibrational ZPE        17.147 [kcal/mol]       71.742 [kJ/mol]       0.02732521 [Eh]        5997.191 [cm^-1]
  Correction ZPE           17.147 [kcal/mol]       71.742 [kJ/mol]       0.02732521 [Eh]        5997.191 [cm^-1]
  Total ZPE, Electronic energy at 0 [K]                                -77.30836100 [Eh]

  Thermal Energy, E (includes ZPE)
    Electronic E            0.000 [kcal/mol]        0.000 [kJ/mol]       0.00000000 [Eh]
    Translational E         0.889 [kcal/mol]        3.718 [kJ/mol]       0.00141628 [Eh]
    Rotational E            0.592 [kcal/mol]        2.479 [kJ/mol]       0.00094418 [Eh]
    Vibrational E          17.394 [kcal/mol]       72.775 [kJ/mol]       0.02771866 [Eh]
  Correction E             18.875 [kcal/mol]       78.973 [kJ/mol]       0.03007912 [Eh]
  Total E, Electronic energy at  298.15 [K]                            -77.30560709 [Eh]

  Enthalpy, H_trans = E_trans + k_B * T
    Electronic H            0.000 [kcal/mol]        0.000 [kJ/mol]       0.00000000 [Eh]
    Translational H         1.481 [kcal/mol]        6.197 [kJ/mol]       0.00236046 [Eh]
    Rotational H            0.592 [kcal/mol]        2.479 [kJ/mol]       0.00094418 [Eh]
    Vibrational H          17.394 [kcal/mol]       72.775 [kJ/mol]       0.02771866 [Eh]
  Correction H             19.467 [kcal/mol]       81.452 [kJ/mol]       0.03102330 [Eh]
  Total H, Enthalpy at  298.15 [K]                                     -77.30466290 [Eh]

  Gibbs free energy, G = H - T * S
    Electronic G            0.000 [kcal/mol]        0.000 [kJ/mol]       0.00000000 [Eh]
    Translational G        -9.164 [kcal/mol]      -38.342 [kJ/mol]      -0.01460386 [Eh]
    Rotational G           -2.646 [kcal/mol]      -11.069 [kJ/mol]      -0.00421613 [Eh]
    Vibrational G          17.078 [kcal/mol]       71.455 [kJ/mol]       0.02721558 [Eh]
  Correction G              5.268 [kcal/mol]       22.043 [kJ/mol]       0.00839559 [Eh]
  Total G, Free enthalpy at  298.15 [K]                                -77.32729062 [Eh]

*** Psi4 exiting successfully. Buy a developer a beer!
