                               Psi4 1.3.2 release

  ==> Input File <==

--------------------------------------------------------------------------
memory 144 GB

molecule {
0 1
C 0.0000000000 0.0000000000 0.0000000000
C 0.0000000000 0.0000000000 1.3342000000
H 0.9234041342 0.0000000000 1.8987335198
H -0.9234041342 0.0000000000 1.8987335198
H 0.9234041342 0.0000000000 -0.5645335198
H -0.9234041342 -0.0000000000 -0.5645335198
}

set dynamic_level 1
set basis cc-pV(Q+d)Z

optimize("wB97X-V")
frequencies("wB97X-V")
--------------------------------------------------------------------------

    Molecular point group: d2h
  Charge       = 0
  Multiplicity = 1
  Basis Set: CC-PV(Q+D)Z
    Blend: CC-PV(Q+D)Z
  Basis Set: (CC-PV(Q+D)Z AUX)
    Blend: CC-PVQZ-JKFIT
  @DF-RKS Final Energy:   -78.59318028849074
    Total Energy =                        -78.5931802884907427
    Molecular point group: d2h
  Basis Set: CC-PV(Q+D)Z
    Blend: CC-PV(Q+D)Z
  Basis Set: (CC-PV(Q+D)Z AUX)
    Blend: CC-PVQZ-JKFIT
  @DF-RKS Final Energy:   -78.59315115357816
    Total Energy =                        -78.5931511535781624
  Basis Set: CC-PV(Q+D)Z
    Blend: CC-PV(Q+D)Z
  Basis Set: (CC-PV(Q+D)Z AUX)
    Blend: CC-PVQZ-JKFIT
  @DF-RKS Final Energy:   -78.59320647248782
    Total Energy =                        -78.5932064724878359
  Basis Set: CC-PV(Q+D)Z
    Blend: CC-PV(Q+D)Z
  Basis Set: (CC-PV(Q+D)Z AUX)
    Blend: CC-PVQZ-JKFIT
  @DF-RKS Final Energy:   -78.59316366675542
    Total Energy =                        -78.5931636667554159
  @DF-RKS Final Energy:   -78.59318956166757
    Total Energy =                        -78.5931895616675575
  @DF-RKS Final Energy:   -78.59316925161649
    Total Energy =                        -78.5931692516164730
  @DF-RKS Final Energy:   -78.59318757534231
    Total Energy =                        -78.5931875753422986
  @DF-RKS Final Energy:   -78.59330500476287
    Total Energy =                        -78.5933050047628683
  @DF-RKS Final Energy:   -78.59330385741001
    Total Energy =                        -78.5933038574100067
  @DF-RKS Final Energy:   -78.59330305414836
    Total Energy =                        -78.5933030541483646
  @DF-RKS Final Energy:   -78.59330251591564
    Total Energy =                        -78.5933025159156387
  @DF-RKS Final Energy:   -78.59330023635904
    Total Energy =                        -78.5933002363590418
  @DF-RKS Final Energy:   -78.59329939785734
    Total Energy =                        -78.5932993978573506
  @DF-RKS Final Energy:   -78.59330687433970
    Total Energy =                        -78.5933068743397030
  @DF-RKS Final Energy:   -78.59330869819132
    Total Energy =                        -78.5933086981913220
  @DF-RKS Final Energy:   -78.59330676996578
    Total Energy =                        -78.5933067699657926
  @DF-RKS Final Energy:   -78.59330753862703
    Total Energy =                        -78.5933075386270161
  @DF-RKS Final Energy:   -78.59330574239392
    Total Energy =                        -78.5933057423939232
  @DF-RKS Final Energy:   -78.59330440708652
    Total Energy =                        -78.5933044070865208
  @DF-RKS Final Energy:   -78.59330593693861
    Total Energy =                        -78.5933059369385916
  **** Optimization is complete! (in 4 steps) ****
    Final optimized geometry and variables:
  @DF-RKS Final Energy:   -78.59330256819048
    Total Energy =                        -78.5933025681904809
  @DF-RKS Final Energy:   -78.59330440033315
    Total Energy =                        -78.5933044003331389
  @DF-RKS Final Energy:   -78.59330440702284
    Total Energy =                        -78.5933044070228419
  @DF-RKS Final Energy:   -78.59330047812050
    Total Energy =                        -78.5933004781205113
  @DF-RKS Final Energy:   -78.59330048816635
    Total Energy =                        -78.5933004881663493
  @DF-RKS Final Energy:   -78.59330735612090
    Total Energy =                        -78.5933073561209028
  @DF-RKS Final Energy:   -78.59330502994850
    Total Energy =                        -78.5933050299485103
  @DF-RKS Final Energy:   -78.59329990432082
    Total Energy =                        -78.5932999043208156
  @DF-RKS Final Energy:   -78.59329990365003
    Total Energy =                        -78.5932999036500348
  @DF-RKS Final Energy:   -78.59330853257362
    Total Energy =                        -78.5933085325736158
  @DF-RKS Final Energy:   -78.59330847229285
    Total Energy =                        -78.5933084722928470
  @DF-RKS Final Energy:   -78.59330693526547
    Total Energy =                        -78.5933069352654741
  @DF-RKS Final Energy:   -78.59330538674155
    Total Energy =                        -78.5933053867415339
  @DF-RKS Final Energy:   -78.59330660822056
    Total Energy =                        -78.5933066082205585
  @DF-RKS Final Energy:   -78.59330660793557
    Total Energy =                        -78.5933066079355882
  @DF-RKS Final Energy:   -78.59330855125263
    Total Energy =                        -78.5933085512526333
  Basis Set: CC-PV(Q+D)Z
    Blend: CC-PV(Q+D)Z
  Basis Set: (CC-PV(Q+D)Z AUX)
    Blend: CC-PVQZ-JKFIT
  @DF-RKS Final Energy:   -78.59330520065912
    Total Energy =                        -78.5933052006591311
  Basis Set: CC-PV(Q+D)Z
    Blend: CC-PV(Q+D)Z
  Basis Set: (CC-PV(Q+D)Z AUX)
    Blend: CC-PVQZ-JKFIT
  @DF-RKS Final Energy:   -78.59330751782585
    Total Energy =                        -78.5933075178258491
  Multiplicity = 1
  Basis Set: CC-PV(Q+D)Z
    Blend: CC-PV(Q+D)Z
  Basis Set: (CC-PV(Q+D)Z AUX)
    Blend: CC-PVQZ-JKFIT
  @DF-RKS Final Energy:   -78.59330774010196
    Total Energy =                        -78.5933077401019773
    Molecular point group: c2v

    Geometry (in Angstrom), charge = 0, multiplicity = 1:

       Center              X                  Y                   Z               Mass
    ------------   -----------------  -----------------  -----------------  -----------------
         C           -0.000204817217     0.000000000000    -0.662069137077    12.000000000000
         C           -0.000204817217     0.000000000000     0.662069137077    12.000000000000
         H            0.925274020023     0.000000000000     1.229083839199     1.007825032230
         H           -0.922835296504     0.000000000000     1.231719433541     1.007825032230
         H            0.925274020023     0.000000000000    -1.229083839199     1.007825032230
         H           -0.922835296504     0.000000000000    -1.231719433541     1.007825032230

  Charge       = 0
  Multiplicity = 1
  Basis Set: CC-PV(Q+D)Z
    Blend: CC-PV(Q+D)Z
  Basis Set: (CC-PV(Q+D)Z AUX)
    Blend: CC-PVQZ-JKFIT

    Orbital Energies [Eh]
    ---------------------

    Doubly Occupied:

       1A1   -10.268032     1B2   -10.267078     2A1    -0.895189
       2B2    -0.701126     3A1    -0.584636     4A1    -0.529412
       3B2    -0.458786     1B1    -0.378670

  @DF-RKS Final Energy:   -78.59330773993564

   => Energetics <=

    Nuclear Repulsion Energy =             33.4711127234798198
    One-Electron Energy =                -170.4909142726857567
    Two-Electron Energy =                  66.6798846151576043
    DFT Exchange-Correlation Energy =      -8.3183000996718341
    Empirical Dispersion Energy =           0.0000000000000000
    VV10 Nonlocal Energy =                  0.0649092937845266
    Total Energy =                        -78.5933077399356392

  Dipole Moment: [D]
     X:    -0.0005      Y:     0.0000      Z:     0.0000     Total:     0.0005

  Vibration                       7                   8                   9
  Freq [cm^-1]                 833.0133            989.4881           1009.2440
  Irrep                          B3u                 B2u                 B3g
  Reduced mass [u]              1.0423              1.1607              1.5185
  Force const [mDyne/A]         0.4261              0.6696              0.9113

  Vibration                       10                  11                  12
  Freq [cm^-1]                1070.5163           1245.2751           1384.3870
  Irrep                           Au                 B2g                  Ag
  Reduced mass [u]              1.0078              1.5253              1.1866
  Force const [mDyne/A]         0.6805              1.3936              1.3399

  Vibration                       13                  14                  15
  Freq [cm^-1]                1475.9948           1717.3326           3144.1113
  Irrep                          B1u                  Ag                 B1u
  Reduced mass [u]              1.1122              3.3881              1.0475
  Force const [mDyne/A]         1.4276              5.8873              6.1011

  Vibration                       16                  17                  18
  Freq [cm^-1]                3163.3891           3221.4687           3245.2956
  Irrep                           Ag                 B2g                 B3u
  Reduced mass [u]              1.0754              1.1155              1.1181
  Force const [mDyne/A]         6.3405              6.8205              6.9384

  ==> Thermochemistry Components <==

  Entropy, S
    Electronic S            0.000 [cal/(mol K)]        0.000 [J/(mol K)]       0.00000000 [mEh/K] (multiplicity = 1)
    Translational S        35.927 [cal/(mol K)]      150.318 [J/(mol K)]       0.05725309 [mEh/K] (mol. weight = 28.0313 [u], P = 101325.00 [Pa])
    Rotational S           15.843 [cal/(mol K)]       66.287 [J/(mol K)]       0.02524745 [mEh/K] (symmetry no. = 4)
    Vibrational S           0.511 [cal/(mol K)]        2.139 [J/(mol K)]       0.00081472 [mEh/K]
  Total S                  52.281 [cal/(mol K)]      218.744 [J/(mol K)]       0.08331526 [mEh/K]
  Correction S              0.000 [cal/(mol K)]        0.000 [J/(mol K)]       0.00000000 [mEh/K]

  Constant volume heat capacity, Cv
    Electronic Cv           0.000 [cal/(mol K)]        0.000 [J/(mol K)]       0.00000000 [mEh/K]
    Translational Cv        2.981 [cal/(mol K)]       12.472 [J/(mol K)]       0.00475022 [mEh/K]
    Rotational Cv           2.981 [cal/(mol K)]       12.472 [J/(mol K)]       0.00475022 [mEh/K]
    Vibrational Cv          2.065 [cal/(mol K)]        8.640 [J/(mol K)]       0.00329078 [mEh/K]
  Total Cv                  8.027 [cal/(mol K)]       33.583 [J/(mol K)]       0.01279121 [mEh/K]
  Correction Cv             0.000 [cal/(mol K)]        0.000 [J/(mol K)]       0.00000000 [mEh/K]

  Constant pressure heat capacity, Cp
    Electronic Cp           0.000 [cal/(mol K)]        0.000 [J/(mol K)]       0.00000000 [mEh/K]
    Translational Cp        4.968 [cal/(mol K)]       20.786 [J/(mol K)]       0.00791703 [mEh/K]
    Rotational Cp           2.981 [cal/(mol K)]       12.472 [J/(mol K)]       0.00475022 [mEh/K]
    Vibrational Cp          2.065 [cal/(mol K)]        8.640 [J/(mol K)]       0.00329078 [mEh/K]
  Total Cp                 10.014 [cal/(mol K)]       41.898 [J/(mol K)]       0.01595802 [mEh/K]
  Correction Cp             0.000 [cal/(mol K)]        0.000 [J/(mol K)]       0.00000000 [mEh/K]

  ==> Thermochemistry Energy Analysis <==

  Raw electronic energy, E0
  Total E0, Electronic energy at well bottom at 0 [K]                  -78.59330901 [Eh]

  Zero-point energy, ZPE_vib = Sum_i nu_i / 2
    Electronic ZPE          0.000 [kcal/mol]        0.000 [kJ/mol]       0.00000000 [Eh]
    Translational ZPE       0.000 [kcal/mol]        0.000 [kJ/mol]       0.00000000 [Eh]
    Rotational ZPE          0.000 [kcal/mol]        0.000 [kJ/mol]       0.00000000 [Eh]
    Vibrational ZPE        32.165 [kcal/mol]      134.577 [kJ/mol]       0.05125767 [Eh]       11249.758 [cm^-1]
  Correction ZPE           32.165 [kcal/mol]      134.577 [kJ/mol]       0.05125767 [Eh]       11249.758 [cm^-1]
  Total ZPE, Electronic energy at 0 [K]                                -78.54205135 [Eh]

  Thermal Energy, E (includes ZPE)
    Electronic E            0.000 [kcal/mol]        0.000 [kJ/mol]       0.00000000 [Eh]
    Translational E         0.889 [kcal/mol]        3.718 [kJ/mol]       0.00141628 [Eh]
    Rotational E            0.889 [kcal/mol]        3.718 [kJ/mol]       0.00141628 [Eh]
    Vibrational E          32.291 [kcal/mol]      135.104 [kJ/mol]       0.05145828 [Eh]
  Correction E             34.068 [kcal/mol]      142.541 [kJ/mol]       0.05429084 [Eh]
  Total E, Electronic energy at  298.15 [K]                            -78.53901818 [Eh]

  Enthalpy, H_trans = E_trans + k_B * T
    Electronic H            0.000 [kcal/mol]        0.000 [kJ/mol]       0.00000000 [Eh]
    Translational H         1.481 [kcal/mol]        6.197 [kJ/mol]       0.00236046 [Eh]
    Rotational H            0.889 [kcal/mol]        3.718 [kJ/mol]       0.00141628 [Eh]
    Vibrational H          32.291 [kcal/mol]      135.104 [kJ/mol]       0.05145828 [Eh]
  Correction H             34.661 [kcal/mol]      145.020 [kJ/mol]       0.05523502 [Eh]
  Total H, Enthalpy at  298.15 [K]                                     -78.53807399 [Eh]

  Gibbs free energy, G = H - T * S
    Electronic G            0.000 [kcal/mol]        0.000 [kJ/mol]       0.00000000 [Eh]
    Translational G        -9.230 [kcal/mol]      -38.620 [kJ/mol]      -0.01470955 [Eh]
    Rotational G           -3.835 [kcal/mol]      -16.045 [kJ/mol]      -0.00611125 [Eh]
    Vibrational G          32.138 [kcal/mol]      134.466 [kJ/mol]       0.05121538 [Eh]
  Correction G             19.073 [kcal/mol]       79.801 [kJ/mol]       0.03039458 [Eh]
  Total G, Free enthalpy at  298.15 [K]                                -78.56291444 [Eh]

*** Psi4 exiting successfully. Buy a developer a beer!
