                               Psi4 1.3.2 release

  ==> Input File <==

--------------------------------------------------------------------------
memory 144 GB

molecule {
0 1
C 0.0000000000 0.0000000000 0.0000000000
Cl 0.0000000000 0.0000000000 1.7182578700
Cl 1.6229007750 0.0000000000 -0.5644494507
}

set dynamic_level 1
set basis cc-pV(Q+d)Z

optimize("wB97X-V")
frequencies("wB97X-V")
--------------------------------------------------------------------------

    Molecular point group: c2v
  Charge       = 0
  Multiplicity = 1
  Basis Set: CC-PV(Q+D)Z
    Blend: CC-PV(Q+D)Z
  Basis Set: (CC-PV(Q+D)Z AUX)
    Blend: CC-PVQZ-JKFIT
  @DF-RKS Final Energy:  -958.30919681939486
    Total Energy =                       -958.3091968193947423
    Molecular point group: c2v
  Basis Set: CC-PV(Q+D)Z
    Blend: CC-PV(Q+D)Z
  Basis Set: (CC-PV(Q+D)Z AUX)
    Blend: CC-PVQZ-JKFIT
  @DF-RKS Final Energy:  -958.30918646560951
    Total Energy =                       -958.3091864656094003
  Basis Set: CC-PV(Q+D)Z
    Blend: CC-PV(Q+D)Z
  Basis Set: (CC-PV(Q+D)Z AUX)
    Blend: CC-PVQZ-JKFIT
  @DF-RKS Final Energy:  -958.30920669637771
    Total Energy =                       -958.3092066963777143
  Basis Set: CC-PV(Q+D)Z
    Blend: CC-PV(Q+D)Z
  Basis Set: (CC-PV(Q+D)Z AUX)
    Blend: CC-PVQZ-JKFIT
  @DF-RKS Final Energy:  -958.30920335692315
    Total Energy =                       -958.3092033569231489
  @DF-RKS Final Energy:  -958.30919012538732
    Total Energy =                       -958.3091901253874312
  @DF-RKS Final Energy:  -958.30933632691654
    Total Energy =                       -958.3093363269165366
  @DF-RKS Final Energy:  -958.30933128934907
    Total Energy =                       -958.3093312893490747
  @DF-RKS Final Energy:  -958.30934087150399
    Total Energy =                       -958.3093408715039914
  @DF-RKS Final Energy:  -958.30933672078970
    Total Energy =                       -958.3093367207898154
  @DF-RKS Final Energy:  -958.30933576595260
    Total Energy =                       -958.3093357659525964
  @DF-RKS Final Energy:  -958.30936168659275
    Total Energy =                       -958.3093616865927515
  @DF-RKS Final Energy:  -958.30936224895925
    Total Energy =                       -958.3093622489593599
  @DF-RKS Final Energy:  -958.30936063029037
    Total Energy =                       -958.3093606302904846
  @DF-RKS Final Energy:  -958.30936157183908
    Total Energy =                       -958.3093615718391902
  @DF-RKS Final Energy:  -958.30936163337446
    Total Energy =                       -958.3093616333743512
  @DF-RKS Final Energy:  -958.30936250499269
    Total Energy =                       -958.3093625049928050
  @DF-RKS Final Energy:  -958.30936224695938
    Total Energy =                       -958.3093622469593811
  @DF-RKS Final Energy:  -958.30936226913332
    Total Energy =                       -958.3093622691333167
  @DF-RKS Final Energy:  -958.30936242697578
    Total Energy =                       -958.3093624269757811
  @DF-RKS Final Energy:  -958.30936241492816
    Total Energy =                       -958.3093624149281595
  **** Optimization is complete! (in 4 steps) ****
    Final optimized geometry and variables:
  @DF-RKS Final Energy:  -958.30936250499303
    Total Energy =                       -958.3093625049931461
  @DF-RKS Final Energy:  -958.30936224695972
    Total Energy =                       -958.3093622469598358
  @DF-RKS Final Energy:  -958.30936226913218
    Total Energy =                       -958.3093622691324072
  @DF-RKS Final Energy:  -958.30936242697817
    Total Energy =                       -958.3093624269782822
  @DF-RKS Final Energy:  -958.30936241493021
    Total Energy =                       -958.3093624149302059
  @DF-RKS Final Energy:  -958.30936250499292
    Total Energy =                       -958.3093625049928050
  @DF-RKS Final Energy:  -958.30936224695972
    Total Energy =                       -958.3093622469596085
  @DF-RKS Final Energy:  -958.30936226913320
    Total Energy =                       -958.3093622691333167
  @DF-RKS Final Energy:  -958.30936242697828
    Total Energy =                       -958.3093624269782822
  Basis Set: CC-PV(Q+D)Z
    Blend: CC-PV(Q+D)Z
  Basis Set: (CC-PV(Q+D)Z AUX)
    Blend: CC-PVQZ-JKFIT
  @DF-RKS Final Energy:  -958.30936241493032
    Total Energy =                       -958.3093624149303196
  Basis Set: CC-PV(Q+D)Z
    Blend: CC-PV(Q+D)Z
  Basis Set: (CC-PV(Q+D)Z AUX)
    Blend: CC-PVQZ-JKFIT
  @DF-RKS Final Energy:  -958.30936231936812
    Total Energy =                       -958.3093623193681196
  Multiplicity = 1
  Basis Set: CC-PV(Q+D)Z
    Blend: CC-PV(Q+D)Z
  Basis Set: (CC-PV(Q+D)Z AUX)
    Blend: CC-PVQZ-JKFIT
  @DF-RKS Final Energy:  -958.30936230882378
    Total Energy =                       -958.3093623088237791
    Molecular point group: cs

    Geometry (in Angstrom), charge = 0, multiplicity = 1:

       Center              X                  Y                   Z               Mass
    ------------   -----------------  -----------------  -----------------  -----------------
         C            0.000000000000    -0.000681066800    -0.841056259867    12.000000000000
         CL           0.000000000000     1.390871051843     0.144392293002    34.968852682000
         CL           0.000000000000    -1.390637335236     0.144226702028    34.968852682000

  Charge       = 0
  Multiplicity = 1
  Basis Set: CC-PV(Q+D)Z
    Blend: CC-PV(Q+D)Z
  Basis Set: (CC-PV(Q+D)Z AUX)
    Blend: CC-PVQZ-JKFIT

    Orbital Energies [Eh]
    ---------------------

    Doubly Occupied:

       1Ap  -101.595132     2Ap  -101.594859     3Ap   -10.427914
       4Ap    -9.611917     5Ap    -9.611626     6Ap    -7.366745
       7Ap    -7.366461     1App   -7.361593     2App   -7.361296
       8Ap    -7.357952     9Ap    -7.357665    10Ap    -1.077490
      11Ap    -0.990617    12Ap    -0.729607    13Ap    -0.580307
      14Ap    -0.536740     3App   -0.532278     4App   -0.457706
      15Ap    -0.436839    16Ap    -0.364386

  @DF-RKS Final Energy:  -958.30936219155114

   => Energetics <=

    Nuclear Repulsion Energy =            118.3173148713103870
    One-Electron Energy =               -1556.1957942363080747
    Two-Electron Energy =                 525.8359892427865816
    DFT Exchange-Correlation Energy =     -46.4322265204149289
    Empirical Dispersion Energy =           0.0000000000000000
    VV10 Nonlocal Energy =                  0.1653544510748605
    Total Energy =                       -958.3093621915511449

  Dipole Moment: [D]
     X:     0.0000      Y:    -0.0078      Z:     1.1589     Total:     1.1589

  Vibration                       7                   8                   9
  Freq [cm^-1]                 350.3499            759.5702            814.0062
  Irrep                           A1                  A1                  B2
  Reduced mass [u]             29.2013             14.3536             13.8663
  Force const [mDyne/A]         2.1118              4.8792              5.4133

  ==> Thermochemistry Components <==

  Entropy, S
    Electronic S            0.000 [cal/(mol K)]        0.000 [J/(mol K)]       0.00000000 [mEh/K] (multiplicity = 1)
    Translational S        39.124 [cal/(mol K)]      163.696 [J/(mol K)]       0.06234835 [mEh/K] (mol. weight = 81.9377 [u], P = 101325.00 [Pa])
    Rotational S           22.324 [cal/(mol K)]       93.405 [J/(mol K)]       0.03557601 [mEh/K] (symmetry no. = 2)
    Vibrational S           1.604 [cal/(mol K)]        6.710 [J/(mol K)]       0.00255559 [mEh/K]
  Total S                  63.052 [cal/(mol K)]      263.810 [J/(mol K)]       0.10047995 [mEh/K]
  Correction S              0.000 [cal/(mol K)]        0.000 [J/(mol K)]       0.00000000 [mEh/K]

  Constant volume heat capacity, Cv
    Electronic Cv           0.000 [cal/(mol K)]        0.000 [J/(mol K)]       0.00000000 [mEh/K]
    Translational Cv        2.981 [cal/(mol K)]       12.472 [J/(mol K)]       0.00475022 [mEh/K]
    Rotational Cv           2.981 [cal/(mol K)]       12.472 [J/(mol K)]       0.00475022 [mEh/K]
    Vibrational Cv          2.922 [cal/(mol K)]       12.226 [J/(mol K)]       0.00465671 [mEh/K]
  Total Cv                  8.884 [cal/(mol K)]       37.170 [J/(mol K)]       0.01415715 [mEh/K]
  Correction Cv             0.000 [cal/(mol K)]        0.000 [J/(mol K)]       0.00000000 [mEh/K]

  Constant pressure heat capacity, Cp
    Electronic Cp           0.000 [cal/(mol K)]        0.000 [J/(mol K)]       0.00000000 [mEh/K]
    Translational Cp        4.968 [cal/(mol K)]       20.786 [J/(mol K)]       0.00791703 [mEh/K]
    Rotational Cp           2.981 [cal/(mol K)]       12.472 [J/(mol K)]       0.00475022 [mEh/K]
    Vibrational Cp          2.922 [cal/(mol K)]       12.226 [J/(mol K)]       0.00465671 [mEh/K]
  Total Cp                 10.871 [cal/(mol K)]       45.484 [J/(mol K)]       0.01732396 [mEh/K]
  Correction Cp             0.000 [cal/(mol K)]        0.000 [J/(mol K)]       0.00000000 [mEh/K]

  ==> Thermochemistry Energy Analysis <==

  Raw electronic energy, E0
  Total E0, Electronic energy at well bottom at 0 [K]                 -958.30936250 [Eh]

  Zero-point energy, ZPE_vib = Sum_i nu_i / 2
    Electronic ZPE          0.000 [kcal/mol]        0.000 [kJ/mol]       0.00000000 [Eh]
    Translational ZPE       0.000 [kcal/mol]        0.000 [kJ/mol]       0.00000000 [Eh]
    Rotational ZPE          0.000 [kcal/mol]        0.000 [kJ/mol]       0.00000000 [Eh]
    Vibrational ZPE         2.750 [kcal/mol]       11.508 [kJ/mol]       0.00438303 [Eh]         961.963 [cm^-1]
  Correction ZPE            2.750 [kcal/mol]       11.508 [kJ/mol]       0.00438303 [Eh]         961.963 [cm^-1]
  Total ZPE, Electronic energy at 0 [K]                               -958.30497948 [Eh]

  Thermal Energy, E (includes ZPE)
    Electronic E            0.000 [kcal/mol]        0.000 [kJ/mol]       0.00000000 [Eh]
    Translational E         0.889 [kcal/mol]        3.718 [kJ/mol]       0.00141628 [Eh]
    Rotational E            0.889 [kcal/mol]        3.718 [kJ/mol]       0.00141628 [Eh]
    Vibrational E           3.081 [kcal/mol]       12.889 [kJ/mol]       0.00490928 [Eh]
  Correction E              4.858 [kcal/mol]       20.326 [kJ/mol]       0.00774184 [Eh]
  Total E, Electronic energy at  298.15 [K]                           -958.30162067 [Eh]

  Enthalpy, H_trans = E_trans + k_B * T
    Electronic H            0.000 [kcal/mol]        0.000 [kJ/mol]       0.00000000 [Eh]
    Translational H         1.481 [kcal/mol]        6.197 [kJ/mol]       0.00236046 [Eh]
    Rotational H            0.889 [kcal/mol]        3.718 [kJ/mol]       0.00141628 [Eh]
    Vibrational H           3.081 [kcal/mol]       12.889 [kJ/mol]       0.00490928 [Eh]
  Correction H              5.451 [kcal/mol]       22.805 [kJ/mol]       0.00868602 [Eh]
  Total H, Enthalpy at  298.15 [K]                                    -958.30067648 [Eh]

  Gibbs free energy, G = H - T * S
    Electronic G            0.000 [kcal/mol]        0.000 [kJ/mol]       0.00000000 [Eh]
    Translational G       -10.184 [kcal/mol]      -42.608 [kJ/mol]      -0.01622870 [Eh]
    Rotational G           -5.767 [kcal/mol]      -24.130 [kJ/mol]      -0.00919071 [Eh]
    Vibrational G           2.602 [kcal/mol]       10.889 [kJ/mol]       0.00414733 [Eh]
  Correction G            -13.348 [kcal/mol]      -55.850 [kJ/mol]      -0.02127208 [Eh]
  Total G, Free enthalpy at  298.15 [K]                               -958.33063458 [Eh]

*** Psi4 exiting successfully. Buy a developer a beer!
