                               Psi4 1.3.2 release

  ==> Input File <==

--------------------------------------------------------------------------
memory 144 GB

molecule {
0 1
C 0.0000000000 0.0000000000 0.0000000000
F 0.0000000000 0.0000000000 1.2971000000
F 1.2538059978 0.0000000000 -0.3323235319
}

set dynamic_level 1
set basis cc-pV(Q+d)Z

optimize("wB97X-V")
frequencies("wB97X-V")
--------------------------------------------------------------------------

    Molecular point group: c2v
  Charge       = 0
  Multiplicity = 1
  Basis Set: CC-PV(Q+D)Z
    Blend: CC-PV(Q+D)Z
  Basis Set: (CC-PV(Q+D)Z AUX)
    Blend: CC-PVQZ-JKFIT
  @DF-RKS Final Energy:  -237.73563651840391
    Total Energy =                       -237.7356365184039078
    Molecular point group: c2v
  Basis Set: CC-PV(Q+D)Z
    Blend: CC-PV(Q+D)Z
  Basis Set: (CC-PV(Q+D)Z AUX)
    Blend: CC-PVQZ-JKFIT
  @DF-RKS Final Energy:  -237.73564413979463
    Total Energy =                       -237.7356441397946298
  Basis Set: CC-PV(Q+D)Z
    Blend: CC-PV(Q+D)Z
  Basis Set: (CC-PV(Q+D)Z AUX)
    Blend: CC-PVQZ-JKFIT
  @DF-RKS Final Energy:  -237.73562754601085
    Total Energy =                       -237.7356275460108748
  Basis Set: CC-PV(Q+D)Z
    Blend: CC-PV(Q+D)Z
  Basis Set: (CC-PV(Q+D)Z AUX)
    Blend: CC-PVQZ-JKFIT
  @DF-RKS Final Energy:  -237.73563224909938
    Total Energy =                       -237.7356322490993819
  @DF-RKS Final Energy:  -237.73564017280074
    Total Energy =                       -237.7356401728007427
  @DF-RKS Final Energy:  -237.73566162185421
    Total Energy =                       -237.7356616218542058
  @DF-RKS Final Energy:  -237.73566269858799
    Total Energy =                       -237.7356626985879871
  @DF-RKS Final Energy:  -237.73565920807039
    Total Energy =                       -237.7356592080703592
  @DF-RKS Final Energy:  -237.73565952925173
    Total Energy =                       -237.7356595292517341
  @DF-RKS Final Energy:  -237.73566310617184
    Total Energy =                       -237.7356631061718417
  @DF-RKS Final Energy:  -237.73566266076278
    Total Energy =                       -237.7356626607627845
  @DF-RKS Final Energy:  -237.73566216251888
    Total Energy =                       -237.7356621625188779
  @DF-RKS Final Energy:  -237.73566183227322
    Total Energy =                       -237.7356618322731947
  @DF-RKS Final Energy:  -237.73566361879344
    Total Energy =                       -237.7356636187934384
  @DF-RKS Final Energy:  -237.73566110337589
    Total Energy =                       -237.7356611033758895
  @DF-RKS Final Energy:  -237.73566440561100
    Total Energy =                       -237.7356644056109758
  @DF-RKS Final Energy:  -237.73566363394309
    Total Energy =                       -237.7356636339430906
  @DF-RKS Final Energy:  -237.73566384706308
    Total Energy =                       -237.7356638470630799
  @DF-RKS Final Energy:  -237.73566403696580
    Total Energy =                       -237.7356640369658010
  @DF-RKS Final Energy:  -237.73566417088384
    Total Energy =                       -237.7356641708838367
  **** Optimization is complete! (in 4 steps) ****
    Final optimized geometry and variables:
  @DF-RKS Final Energy:  -237.73566440566790
    Total Energy =                       -237.7356644056679045
  @DF-RKS Final Energy:  -237.73566363395403
    Total Energy =                       -237.7356636339540330
  @DF-RKS Final Energy:  -237.73566384702471
    Total Energy =                       -237.7356638470247390
  @DF-RKS Final Energy:  -237.73566403694119
    Total Energy =                       -237.7356640369411878
  @DF-RKS Final Energy:  -237.73566417091135
    Total Energy =                       -237.7356641709113489
  @DF-RKS Final Energy:  -237.73566440566810
    Total Energy =                       -237.7356644056681034
  @DF-RKS Final Energy:  -237.73566363395466
    Total Energy =                       -237.7356636339546583
  @DF-RKS Final Energy:  -237.73566384702528
    Total Energy =                       -237.7356638470252790
  @DF-RKS Final Energy:  -237.73566403694142
    Total Energy =                       -237.7356640369414436
  Basis Set: CC-PV(Q+D)Z
    Blend: CC-PV(Q+D)Z
  Basis Set: (CC-PV(Q+D)Z AUX)
    Blend: CC-PVQZ-JKFIT
  @DF-RKS Final Energy:  -237.73566417091126
    Total Energy =                       -237.7356641709112637
  Basis Set: CC-PV(Q+D)Z
    Blend: CC-PV(Q+D)Z
  Basis Set: (CC-PV(Q+D)Z AUX)
    Blend: CC-PVQZ-JKFIT
  @DF-RKS Final Energy:  -237.73566400100057
    Total Energy =                       -237.7356640010005719
  Multiplicity = 1
  Basis Set: CC-PV(Q+D)Z
    Blend: CC-PV(Q+D)Z
  Basis Set: (CC-PV(Q+D)Z AUX)
    Blend: CC-PVQZ-JKFIT
  @DF-RKS Final Energy:  -237.73566365306968
    Total Energy =                       -237.7356636530696790
    Molecular point group: cs

    Geometry (in Angstrom), charge = 0, multiplicity = 1:

       Center              X                  Y                   Z               Mass
    ------------   -----------------  -----------------  -----------------  -----------------
         C            0.000000000000    -0.000622685604    -0.604768800507    12.000000000000
         F            0.000000000000     1.029420416160     0.191147720218    18.998403162730
         F            0.000000000000    -1.029027107986     0.190843626314    18.998403162730

  Charge       = 0
  Multiplicity = 1
  Basis Set: CC-PV(Q+D)Z
    Blend: CC-PV(Q+D)Z
  Basis Set: (CC-PV(Q+D)Z AUX)
    Blend: CC-PVQZ-JKFIT

    Orbital Energies [Eh]
    ---------------------

    Doubly Occupied:

       1Ap   -24.837611     2Ap   -24.836961     3Ap   -10.475912
       4Ap    -1.474011     5Ap    -1.395861     6Ap    -0.833964
       7Ap    -0.722019     1App   -0.679193     8Ap    -0.674247
       2App   -0.596914     9Ap    -0.570657    10Ap    -0.419107

  @DF-RKS Final Energy:  -237.73566378526363

   => Energetics <=

    Nuclear Repulsion Energy =             64.7525388886356268
    One-Electron Energy =                -457.2403514058233327
    Two-Electron Energy =                 173.5030708574335563
    DFT Exchange-Correlation Energy =     -18.8515589389805847
    Empirical Dispersion Energy =           0.0000000000000000
    VV10 Nonlocal Energy =                  0.1006368134710989
    Total Energy =                       -237.7356637852636254

  Dipole Moment: [D]
     X:     0.0000      Y:    -0.0079      Z:     0.6241     Total:     0.6241

  Vibration                       7                   8                   9
  Freq [cm^-1]                 678.1399           1145.2142           1258.6360
  Irrep                           A1                  B2                  A1
  Reduced mass [u]             17.7527             13.6915             13.8366
  Force const [mDyne/A]         4.8101             10.5797             12.9146

  ==> Thermochemistry Components <==

  Entropy, S
    Electronic S            0.000 [cal/(mol K)]        0.000 [J/(mol K)]       0.00000000 [mEh/K] (multiplicity = 1)
    Translational S        37.652 [cal/(mol K)]      157.535 [J/(mol K)]       0.06000175 [mEh/K] (mol. weight = 49.9968 [u], P = 101325.00 [Pa])
    Rotational S           19.438 [cal/(mol K)]       81.329 [J/(mol K)]       0.03097660 [mEh/K] (symmetry no. = 2)
    Vibrational S           0.417 [cal/(mol K)]        1.746 [J/(mol K)]       0.00066503 [mEh/K]
  Total S                  57.507 [cal/(mol K)]      240.610 [J/(mol K)]       0.09164337 [mEh/K]
  Correction S              0.000 [cal/(mol K)]        0.000 [J/(mol K)]       0.00000000 [mEh/K]

  Constant volume heat capacity, Cv
    Electronic Cv           0.000 [cal/(mol K)]        0.000 [J/(mol K)]       0.00000000 [mEh/K]
    Translational Cv        2.981 [cal/(mol K)]       12.472 [J/(mol K)]       0.00475022 [mEh/K]
    Rotational Cv           2.981 [cal/(mol K)]       12.472 [J/(mol K)]       0.00475022 [mEh/K]
    Vibrational Cv          1.285 [cal/(mol K)]        5.375 [J/(mol K)]       0.00204734 [mEh/K]
  Total Cv                  7.246 [cal/(mol K)]       30.319 [J/(mol K)]       0.01154777 [mEh/K]
  Correction Cv             0.000 [cal/(mol K)]        0.000 [J/(mol K)]       0.00000000 [mEh/K]

  Constant pressure heat capacity, Cp
    Electronic Cp           0.000 [cal/(mol K)]        0.000 [J/(mol K)]       0.00000000 [mEh/K]
    Translational Cp        4.968 [cal/(mol K)]       20.786 [J/(mol K)]       0.00791703 [mEh/K]
    Rotational Cp           2.981 [cal/(mol K)]       12.472 [J/(mol K)]       0.00475022 [mEh/K]
    Vibrational Cp          1.285 [cal/(mol K)]        5.375 [J/(mol K)]       0.00204734 [mEh/K]
  Total Cp                  9.234 [cal/(mol K)]       38.633 [J/(mol K)]       0.01471458 [mEh/K]
  Correction Cp             0.000 [cal/(mol K)]        0.000 [J/(mol K)]       0.00000000 [mEh/K]

  ==> Thermochemistry Energy Analysis <==

  Raw electronic energy, E0
  Total E0, Electronic energy at well bottom at 0 [K]                 -237.73566441 [Eh]

  Zero-point energy, ZPE_vib = Sum_i nu_i / 2
    Electronic ZPE          0.000 [kcal/mol]        0.000 [kJ/mol]       0.00000000 [Eh]
    Translational ZPE       0.000 [kcal/mol]        0.000 [kJ/mol]       0.00000000 [Eh]
    Rotational ZPE          0.000 [kcal/mol]        0.000 [kJ/mol]       0.00000000 [Eh]
    Vibrational ZPE         4.406 [kcal/mol]       18.434 [kJ/mol]       0.00702129 [Eh]        1540.995 [cm^-1]
  Correction ZPE            4.406 [kcal/mol]       18.434 [kJ/mol]       0.00702129 [Eh]        1540.995 [cm^-1]
  Total ZPE, Electronic energy at 0 [K]                               -237.72864312 [Eh]

  Thermal Energy, E (includes ZPE)
    Electronic E            0.000 [kcal/mol]        0.000 [kJ/mol]       0.00000000 [Eh]
    Translational E         0.889 [kcal/mol]        3.718 [kJ/mol]       0.00141628 [Eh]
    Rotational E            0.889 [kcal/mol]        3.718 [kJ/mol]       0.00141628 [Eh]
    Vibrational E           4.504 [kcal/mol]       18.844 [kJ/mol]       0.00717713 [Eh]
  Correction E              6.281 [kcal/mol]       26.280 [kJ/mol]       0.01000969 [Eh]
  Total E, Electronic energy at  298.15 [K]                           -237.72565472 [Eh]

  Enthalpy, H_trans = E_trans + k_B * T
    Electronic H            0.000 [kcal/mol]        0.000 [kJ/mol]       0.00000000 [Eh]
    Translational H         1.481 [kcal/mol]        6.197 [kJ/mol]       0.00236046 [Eh]
    Rotational H            0.889 [kcal/mol]        3.718 [kJ/mol]       0.00141628 [Eh]
    Vibrational H           4.504 [kcal/mol]       18.844 [kJ/mol]       0.00717713 [Eh]
  Correction H              6.874 [kcal/mol]       28.759 [kJ/mol]       0.01095387 [Eh]
  Total H, Enthalpy at  298.15 [K]                                    -237.72471053 [Eh]

  Gibbs free energy, G = H - T * S
    Electronic G            0.000 [kcal/mol]        0.000 [kJ/mol]       0.00000000 [Eh]
    Translational G        -9.745 [kcal/mol]      -40.772 [kJ/mol]      -0.01552906 [Eh]
    Rotational G           -4.907 [kcal/mol]      -20.530 [kJ/mol]      -0.00781940 [Eh]
    Vibrational G           4.379 [kcal/mol]       18.323 [kJ/mol]       0.00697886 [Eh]
  Correction G            -10.272 [kcal/mol]      -42.978 [kJ/mol]      -0.01636960 [Eh]
  Total G, Free enthalpy at  298.15 [K]                               -237.75203400 [Eh]

*** Psi4 exiting successfully. Buy a developer a beer!
