                               Psi4 1.3.2 release

  ==> Input File <==

--------------------------------------------------------------------------
memory 144 GB

molecule {
0 1
Cl 0.0000000000 0.0000000000 0.0000000000
Cl 0.0000000000 0.0000000000 1.9965761200
}

set dynamic_level 1
set basis cc-pV(Q+d)Z

optimize("wB97X-V")
frequencies("wB97X-V")
--------------------------------------------------------------------------

    Molecular point group: d2h
  Charge       = 0
  Multiplicity = 1
  Basis Set: CC-PV(Q+D)Z
    Blend: CC-PV(Q+D)Z
  Basis Set: (CC-PV(Q+D)Z AUX)
    Blend: CC-PVQZ-JKFIT
  @DF-RKS Final Energy:  -920.27493628449622
    Total Energy =                       -920.2749362844962207
    Molecular point group: d2h
  Basis Set: CC-PV(Q+D)Z
    Blend: CC-PV(Q+D)Z
  Basis Set: (CC-PV(Q+D)Z AUX)
    Blend: CC-PVQZ-JKFIT
  @DF-RKS Final Energy:  -920.27492627978302
    Total Energy =                       -920.2749262797830170
  Basis Set: CC-PV(Q+D)Z
    Blend: CC-PV(Q+D)Z
  Basis Set: (CC-PV(Q+D)Z AUX)
    Blend: CC-PVQZ-JKFIT
  @DF-RKS Final Energy:  -920.27494598360829
    Total Energy =                       -920.2749459836081769
  Basis Set: CC-PV(Q+D)Z
    Blend: CC-PV(Q+D)Z
  Basis Set: (CC-PV(Q+D)Z AUX)
    Blend: CC-PVQZ-JKFIT
  @DF-RKS Final Energy:  -920.27506990368818
    Total Energy =                       -920.2750699036882907
  @DF-RKS Final Energy:  -920.27506607719965
    Total Energy =                       -920.2750660771997673
  @DF-RKS Final Energy:  -920.27507340654404
    Total Energy =                       -920.2750734065440383
  @DF-RKS Final Energy:  -920.27509038801804
    Total Energy =                       -920.2750903880181568
  @DF-RKS Final Energy:  -920.27509039251140
    Total Energy =                       -920.2750903925114017
  @DF-RKS Final Energy:  -920.27509004852789
    Total Energy =                       -920.2750900485277725
  **** Optimization is complete! (in 3 steps) ****
    Final optimized geometry and variables:
  @DF-RKS Final Energy:  -920.27509038801804
    Total Energy =                       -920.2750903880180431
  @DF-RKS Final Energy:  -920.27509039251129
    Total Energy =                       -920.2750903925111743
  Basis Set: CC-PV(Q+D)Z
    Blend: CC-PV(Q+D)Z
  Basis Set: (CC-PV(Q+D)Z AUX)
    Blend: CC-PVQZ-JKFIT
  @DF-RKS Final Energy:  -920.27509004852811
    Total Energy =                       -920.2750900485281136
  Basis Set: CC-PV(Q+D)Z
    Blend: CC-PV(Q+D)Z
  Basis Set: (CC-PV(Q+D)Z AUX)
    Blend: CC-PVQZ-JKFIT
  @DF-RKS Final Energy:  -920.27509038801804
    Total Energy =                       -920.2750903880180431
  Multiplicity = 1
  Basis Set: CC-PV(Q+D)Z
    Blend: CC-PV(Q+D)Z
  Basis Set: (CC-PV(Q+D)Z AUX)
    Blend: CC-PVQZ-JKFIT
  @DF-RKS Final Energy:  -920.27509039251083
    Total Energy =                       -920.2750903925108332
    Molecular point group: d2h

    Geometry (in Angstrom), charge = 0, multiplicity = 1:

       Center              X                  Y                   Z               Mass
    ------------   -----------------  -----------------  -----------------  -----------------
         CL           0.000000000000     0.000000000000    -0.988056298098    34.968852682000
         CL           0.000000000000     0.000000000000     0.988056298098    34.968852682000

  Charge       = 0
  Multiplicity = 1
  Basis Set: CC-PV(Q+D)Z
    Blend: CC-PV(Q+D)Z
  Basis Set: (CC-PV(Q+D)Z AUX)
    Blend: CC-PVQZ-JKFIT

    Orbital Energies [Eh]
    ---------------------

    Doubly Occupied:

       1B1u -101.604118     1Ag  -101.604114     2Ag    -9.617426
       2B1u   -9.617379     3Ag    -7.377400     3B1u   -7.377238
       1B3g   -7.362982     1B2g   -7.362982     1B2u   -7.362982
       1B3u   -7.362982     4Ag    -1.071694     4B1u   -0.891333
       5Ag    -0.573579     2B2u   -0.525007     2B3u   -0.525007
       2B3g   -0.408420     2B2g   -0.408420

  @DF-RKS Final Energy:  -920.27509004852811

   => Energetics <=

    Nuclear Repulsion Energy =             77.3904352302355392
    One-Electron Energy =               -1424.1074032640576661
    Two-Electron Energy =                 469.0028081797887580
    DFT Exchange-Correlation Energy =     -42.7032470150531651
    Empirical Dispersion Energy =           0.0000000000000000
    VV10 Nonlocal Energy =                  0.1423168205583329
    Total Energy =                       -920.2750900485281136

  Dipole Moment: [D]
     X:     0.0000      Y:     0.0000      Z:     0.0000     Total:     0.0000

  Vibration                       6
  Freq [cm^-1]                 595.0519
  Irrep                           Ag
  Reduced mass [u]             34.9689
  Force const [mDyne/A]         7.2953

  ==> Thermochemistry Components <==

  Entropy, S
    Electronic S            0.000 [cal/(mol K)]        0.000 [J/(mol K)]       0.00000000 [mEh/K] (multiplicity = 1)
    Translational S        38.652 [cal/(mol K)]      161.721 [J/(mol K)]       0.06159614 [mEh/K] (mol. weight = 69.9377 [u], P = 101325.00 [Pa])
    Rotational S           13.990 [cal/(mol K)]       58.534 [J/(mol K)]       0.02229456 [mEh/K] (symmetry no. = 2)
    Vibrational S           0.458 [cal/(mol K)]        1.917 [J/(mol K)]       0.00073026 [mEh/K]
  Total S                  53.100 [cal/(mol K)]      222.172 [J/(mol K)]       0.08462095 [mEh/K]
  Correction S              0.000 [cal/(mol K)]        0.000 [J/(mol K)]       0.00000000 [mEh/K]

  Constant volume heat capacity, Cv
    Electronic Cv           0.000 [cal/(mol K)]        0.000 [J/(mol K)]       0.00000000 [mEh/K]
    Translational Cv        2.981 [cal/(mol K)]       12.472 [J/(mol K)]       0.00475022 [mEh/K]
    Rotational Cv           1.987 [cal/(mol K)]        8.314 [J/(mol K)]       0.00316681 [mEh/K]
    Vibrational Cv          1.042 [cal/(mol K)]        4.361 [J/(mol K)]       0.00166103 [mEh/K]
  Total Cv                  6.010 [cal/(mol K)]       25.147 [J/(mol K)]       0.00957806 [mEh/K]
  Correction Cv             0.000 [cal/(mol K)]        0.000 [J/(mol K)]       0.00000000 [mEh/K]

  Constant pressure heat capacity, Cp
    Electronic Cp           0.000 [cal/(mol K)]        0.000 [J/(mol K)]       0.00000000 [mEh/K]
    Translational Cp        4.968 [cal/(mol K)]       20.786 [J/(mol K)]       0.00791703 [mEh/K]
    Rotational Cp           1.987 [cal/(mol K)]        8.314 [J/(mol K)]       0.00316681 [mEh/K]
    Vibrational Cp          1.042 [cal/(mol K)]        4.361 [J/(mol K)]       0.00166103 [mEh/K]
  Total Cp                  7.998 [cal/(mol K)]       33.462 [J/(mol K)]       0.01274487 [mEh/K]
  Correction Cp             0.000 [cal/(mol K)]        0.000 [J/(mol K)]       0.00000000 [mEh/K]

  ==> Thermochemistry Energy Analysis <==

  Raw electronic energy, E0
  Total E0, Electronic energy at well bottom at 0 [K]                 -920.27509039 [Eh]

  Zero-point energy, ZPE_vib = Sum_i nu_i / 2
    Electronic ZPE          0.000 [kcal/mol]        0.000 [kJ/mol]       0.00000000 [Eh]
    Translational ZPE       0.000 [kcal/mol]        0.000 [kJ/mol]       0.00000000 [Eh]
    Rotational ZPE          0.000 [kcal/mol]        0.000 [kJ/mol]       0.00000000 [Eh]
    Vibrational ZPE         0.851 [kcal/mol]        3.559 [kJ/mol]       0.00135563 [Eh]         297.526 [cm^-1]
  Correction ZPE            0.851 [kcal/mol]        3.559 [kJ/mol]       0.00135563 [Eh]         297.526 [cm^-1]
  Total ZPE, Electronic energy at 0 [K]                               -920.27373476 [Eh]

  Thermal Energy, E (includes ZPE)
    Electronic E            0.000 [kcal/mol]        0.000 [kJ/mol]       0.00000000 [Eh]
    Translational E         0.889 [kcal/mol]        3.718 [kJ/mol]       0.00141628 [Eh]
    Rotational E            0.592 [kcal/mol]        2.479 [kJ/mol]       0.00094418 [Eh]
    Vibrational E           0.953 [kcal/mol]        3.986 [kJ/mol]       0.00151833 [Eh]
  Correction E              2.434 [kcal/mol]       10.184 [kJ/mol]       0.00387879 [Eh]
  Total E, Electronic energy at  298.15 [K]                           -920.27121160 [Eh]

  Enthalpy, H_trans = E_trans + k_B * T
    Electronic H            0.000 [kcal/mol]        0.000 [kJ/mol]       0.00000000 [Eh]
    Translational H         1.481 [kcal/mol]        6.197 [kJ/mol]       0.00236046 [Eh]
    Rotational H            0.592 [kcal/mol]        2.479 [kJ/mol]       0.00094418 [Eh]
    Vibrational H           0.953 [kcal/mol]        3.986 [kJ/mol]       0.00151833 [Eh]
  Correction H              3.026 [kcal/mol]       12.663 [kJ/mol]       0.00482297 [Eh]
  Total H, Enthalpy at  298.15 [K]                                    -920.27026741 [Eh]

  Gibbs free energy, G = H - T * S
    Electronic G            0.000 [kcal/mol]        0.000 [kJ/mol]       0.00000000 [Eh]
    Translational G       -10.043 [kcal/mol]      -42.020 [kJ/mol]      -0.01600443 [Eh]
    Rotational G           -3.579 [kcal/mol]      -14.973 [kJ/mol]      -0.00570294 [Eh]
    Vibrational G           0.816 [kcal/mol]        3.415 [kJ/mol]       0.00130060 [Eh]
  Correction G            -12.805 [kcal/mol]      -53.578 [kJ/mol]      -0.02040676 [Eh]
  Total G, Free enthalpy at  298.15 [K]                               -920.29549715 [Eh]

*** Psi4 exiting successfully. Buy a developer a beer!
