                               Psi4 1.3.2 release

  ==> Input File <==

--------------------------------------------------------------------------
memory 144 GB

molecule {
0 1
Cl 0.0000000000 0.0000000000 0.0000000000
C 0.0000000000 0.0000000000 1.6357056100
N 0.0000000000 0.0000000000 2.7976884200
}

set dynamic_level 1
set basis cc-pV(Q+d)Z

optimize("wB97X-V")
frequencies("wB97X-V")
--------------------------------------------------------------------------

    Molecular point group: c2v
  Charge       = 0
  Multiplicity = 1
  Basis Set: CC-PV(Q+D)Z
    Blend: CC-PV(Q+D)Z
  Basis Set: (CC-PV(Q+D)Z AUX)
    Blend: CC-PVQZ-JKFIT
  @DF-RKS Final Energy:  -552.98007813189872
    Total Energy =                       -552.9800781318988356
    Molecular point group: c2v
  Basis Set: CC-PV(Q+D)Z
    Blend: CC-PV(Q+D)Z
  Basis Set: (CC-PV(Q+D)Z AUX)
    Blend: CC-PVQZ-JKFIT
  @DF-RKS Final Energy:  -552.98007274588292
    Total Energy =                       -552.9800727458830352
  Basis Set: CC-PV(Q+D)Z
    Blend: CC-PV(Q+D)Z
  Basis Set: (CC-PV(Q+D)Z AUX)
    Blend: CC-PVQZ-JKFIT
  @DF-RKS Final Energy:  -552.98008293418275
    Total Energy =                       -552.9800829341828603
  Basis Set: CC-PV(Q+D)Z
    Blend: CC-PV(Q+D)Z
  Basis Set: (CC-PV(Q+D)Z AUX)
    Blend: CC-PVQZ-JKFIT
  @DF-RKS Final Energy:  -552.98002320468970
    Total Energy =                       -552.9800232046898145
  @DF-RKS Final Energy:  -552.98012817854863
    Total Energy =                       -552.9801281785486253
  @DF-RKS Final Energy:  -552.98043766535625
    Total Energy =                       -552.9804376653562485
  @DF-RKS Final Energy:  -552.98043679404464
    Total Energy =                       -552.9804367940446355
  @DF-RKS Final Energy:  -552.98043793658178
    Total Energy =                       -552.9804379365817795
  @DF-RKS Final Energy:  -552.98043405071189
    Total Energy =                       -552.9804340507118923
  @DF-RKS Final Energy:  -552.98043602443272
    Total Energy =                       -552.9804360244328336
  @DF-RKS Final Energy:  -552.98043813266395
    Total Energy =                       -552.9804381326638349
  @DF-RKS Final Energy:  -552.98043774648488
    Total Energy =                       -552.9804377464848812
  @DF-RKS Final Energy:  -552.98043791712200
    Total Energy =                       -552.9804379171221171
  @DF-RKS Final Energy:  -552.98043568335652
    Total Energy =                       -552.9804356833565180
  @DF-RKS Final Energy:  -552.98043531526935
    Total Energy =                       -552.9804353152692329
  **** Optimization is complete! (in 3 steps) ****
    Final optimized geometry and variables:
  @DF-RKS Final Energy:  -552.98043813266406
    Total Energy =                       -552.9804381326641760
  @DF-RKS Final Energy:  -552.98043774648443
    Total Energy =                       -552.9804377464844265
  @DF-RKS Final Energy:  -552.98043791712303
    Total Energy =                       -552.9804379171230266
  @DF-RKS Final Energy:  -552.98043568341689
    Total Energy =                       -552.9804356834168857
  @DF-RKS Final Energy:  -552.98043531526957
    Total Energy =                       -552.9804353152694603
  @DF-RKS Final Energy:  -552.98043813266406
    Total Energy =                       -552.9804381326641760
  @DF-RKS Final Energy:  -552.98043774648511
    Total Energy =                       -552.9804377464849949
  @DF-RKS Final Energy:  -552.98043791712269
    Total Energy =                       -552.9804379171226856
  @DF-RKS Final Energy:  -552.98043568341598
    Total Energy =                       -552.9804356834158625
  @DF-RKS Final Energy:  -552.98043531526957
    Total Energy =                       -552.9804353152694603
  Basis Set: CC-PV(Q+D)Z
    Blend: CC-PV(Q+D)Z
  Basis Set: (CC-PV(Q+D)Z AUX)
    Blend: CC-PVQZ-JKFIT
  @DF-RKS Final Energy:  -552.98043554612650
    Total Energy =                       -552.9804355461265004
  Basis Set: CC-PV(Q+D)Z
    Blend: CC-PV(Q+D)Z
  Basis Set: (CC-PV(Q+D)Z AUX)
    Blend: CC-PVQZ-JKFIT
  @DF-RKS Final Energy:  -552.98043574361350
    Total Energy =                       -552.9804357436134978
  Multiplicity = 1
  Basis Set: CC-PV(Q+D)Z
    Blend: CC-PV(Q+D)Z
  Basis Set: (CC-PV(Q+D)Z AUX)
    Blend: CC-PVQZ-JKFIT
  @DF-RKS Final Energy:  -552.98043805095278
    Total Energy =                       -552.9804380509528983
    Molecular point group: cs

    Geometry (in Angstrom), charge = 0, multiplicity = 1:

       Center              X                  Y                   Z               Mass
    ------------   -----------------  -----------------  -----------------  -----------------
         CL           0.000000000000    -0.000093163192    -0.959411194479    34.968852682000
         C            0.000000000000     0.000656538323     0.671125720485    12.000000000000
         N            0.000000000000    -0.000329973971     1.820743078792    14.003074004430

  Charge       = 0
  Multiplicity = 1
  Basis Set: CC-PV(Q+D)Z
    Blend: CC-PV(Q+D)Z
  Basis Set: (CC-PV(Q+D)Z AUX)
    Blend: CC-PVQZ-JKFIT

    Orbital Energies [Eh]
    ---------------------

    Doubly Occupied:

       1Ap  -101.637419     2Ap   -14.435747     3Ap   -10.371603
       4Ap    -9.652686     5Ap    -7.410176     1App   -7.399329
       6Ap    -7.399329     7Ap    -1.100885     8Ap    -1.037872
       9Ap    -0.692838     2App   -0.559244    10Ap    -0.559244
      11Ap    -0.505578     3App   -0.441563    12Ap    -0.441563

  @DF-RKS Final Energy:  -552.98043805127725

   => Energetics <=

    Nuclear Repulsion Energy =             75.0867199598957171
    One-Electron Energy =                -908.4903778236943026
    Two-Electron Energy =                 310.2866712378122998
    DFT Exchange-Correlation Energy =     -29.9878728848663485
    Empirical Dispersion Energy =           0.0000000000000000
    VV10 Nonlocal Energy =                  0.1244214595754451
    Total Energy =                       -552.9804380512771331

  Dipole Moment: [D]
     X:     0.0000      Y:     0.0008      Z:    -2.9400     Total:     2.9400

  Vibration                       6                   7                   8
  Freq [cm^-1]                 414.7881            415.6141            768.9382
  Irrep                           B2                  B1                  A1
  Reduced mass [u]             12.7609             12.7609             17.9682
  Force const [mDyne/A]         1.2936              1.2987              6.2595

  Vibration                       9
  Freq [cm^-1]                2368.8608
  Irrep                           A1
  Reduced mass [u]             12.7411
  Force const [mDyne/A]        42.1246

  ==> Thermochemistry Components <==

  Entropy, S
    Electronic S            0.000 [cal/(mol K)]        0.000 [J/(mol K)]       0.00000000 [mEh/K] (multiplicity = 1)
    Translational S        38.243 [cal/(mol K)]      160.010 [J/(mol K)]       0.06094445 [mEh/K] (mol. weight = 60.9719 [u], P = 101325.00 [Pa])
    Rotational S           15.778 [cal/(mol K)]       66.017 [J/(mol K)]       0.02514444 [mEh/K] (symmetry no. = 1)
    Vibrational S           2.051 [cal/(mol K)]        8.582 [J/(mol K)]       0.00326885 [mEh/K]
  Total S                  56.073 [cal/(mol K)]      234.609 [J/(mol K)]       0.08935773 [mEh/K]
  Correction S              0.000 [cal/(mol K)]        0.000 [J/(mol K)]       0.00000000 [mEh/K]

  Constant volume heat capacity, Cv
    Electronic Cv           0.000 [cal/(mol K)]        0.000 [J/(mol K)]       0.00000000 [mEh/K]
    Translational Cv        2.981 [cal/(mol K)]       12.472 [J/(mol K)]       0.00475022 [mEh/K]
    Rotational Cv           1.987 [cal/(mol K)]        8.314 [J/(mol K)]       0.00316681 [mEh/K]
    Vibrational Cv          3.581 [cal/(mol K)]       14.981 [J/(mol K)]       0.00570599 [mEh/K]
  Total Cv                  8.549 [cal/(mol K)]       35.767 [J/(mol K)]       0.01362301 [mEh/K]
  Correction Cv             0.000 [cal/(mol K)]        0.000 [J/(mol K)]       0.00000000 [mEh/K]

  Constant pressure heat capacity, Cp
    Electronic Cp           0.000 [cal/(mol K)]        0.000 [J/(mol K)]       0.00000000 [mEh/K]
    Translational Cp        4.968 [cal/(mol K)]       20.786 [J/(mol K)]       0.00791703 [mEh/K]
    Rotational Cp           1.987 [cal/(mol K)]        8.314 [J/(mol K)]       0.00316681 [mEh/K]
    Vibrational Cp          3.581 [cal/(mol K)]       14.981 [J/(mol K)]       0.00570599 [mEh/K]
  Total Cp                 10.536 [cal/(mol K)]       44.082 [J/(mol K)]       0.01678982 [mEh/K]
  Correction Cp             0.000 [cal/(mol K)]        0.000 [J/(mol K)]       0.00000000 [mEh/K]

  ==> Thermochemistry Energy Analysis <==

  Raw electronic energy, E0
  Total E0, Electronic energy at well bottom at 0 [K]                 -552.98043813 [Eh]

  Zero-point energy, ZPE_vib = Sum_i nu_i / 2
    Electronic ZPE          0.000 [kcal/mol]        0.000 [kJ/mol]       0.00000000 [Eh]
    Translational ZPE       0.000 [kcal/mol]        0.000 [kJ/mol]       0.00000000 [Eh]
    Rotational ZPE          0.000 [kcal/mol]        0.000 [kJ/mol]       0.00000000 [Eh]
    Vibrational ZPE         5.673 [kcal/mol]       23.735 [kJ/mol]       0.00904023 [Eh]        1984.101 [cm^-1]
  Correction ZPE            5.673 [kcal/mol]       23.735 [kJ/mol]       0.00904023 [Eh]        1984.101 [cm^-1]
  Total ZPE, Electronic energy at 0 [K]                               -552.97139791 [Eh]

  Thermal Energy, E (includes ZPE)
    Electronic E            0.000 [kcal/mol]        0.000 [kJ/mol]       0.00000000 [Eh]
    Translational E         0.889 [kcal/mol]        3.718 [kJ/mol]       0.00141628 [Eh]
    Rotational E            0.592 [kcal/mol]        2.479 [kJ/mol]       0.00094418 [Eh]
    Vibrational E           6.098 [kcal/mol]       25.514 [kJ/mol]       0.00971792 [Eh]
  Correction E              7.579 [kcal/mol]       31.712 [kJ/mol]       0.01207838 [Eh]
  Total E, Electronic energy at  298.15 [K]                           -552.96835976 [Eh]

  Enthalpy, H_trans = E_trans + k_B * T
    Electronic H            0.000 [kcal/mol]        0.000 [kJ/mol]       0.00000000 [Eh]
    Translational H         1.481 [kcal/mol]        6.197 [kJ/mol]       0.00236046 [Eh]
    Rotational H            0.592 [kcal/mol]        2.479 [kJ/mol]       0.00094418 [Eh]
    Vibrational H           6.098 [kcal/mol]       25.514 [kJ/mol]       0.00971792 [Eh]
  Correction H              8.172 [kcal/mol]       34.191 [kJ/mol]       0.01302256 [Eh]
  Total H, Enthalpy at  298.15 [K]                                    -552.96741557 [Eh]

  Gibbs free energy, G = H - T * S
    Electronic G            0.000 [kcal/mol]        0.000 [kJ/mol]       0.00000000 [Eh]
    Translational G        -9.921 [kcal/mol]      -41.509 [kJ/mol]      -0.01581013 [Eh]
    Rotational G           -4.112 [kcal/mol]      -17.204 [kJ/mol]      -0.00655263 [Eh]
    Vibrational G           5.487 [kcal/mol]       22.956 [kJ/mol]       0.00874331 [Eh]
  Correction G             -8.546 [kcal/mol]      -35.758 [kJ/mol]      -0.01361945 [Eh]
  Total G, Free enthalpy at  298.15 [K]                               -552.99405758 [Eh]

*** Psi4 exiting successfully. Buy a developer a beer!
