                               Psi4 1.3.2 release

  ==> Input File <==

--------------------------------------------------------------------------
memory 144 GB

molecule {
0 1
Cl 0.0000000000 0.0000000000 0.0000000000
F 0.0000000000 0.0000000000 1.6318233300
}

set dynamic_level 1
set basis cc-pV(Q+d)Z

optimize("wB97X-V")
frequencies("wB97X-V")
--------------------------------------------------------------------------

    Molecular point group: c2v
  Charge       = 0
  Multiplicity = 1
  Basis Set: CC-PV(Q+D)Z
    Blend: CC-PV(Q+D)Z
  Basis Set: (CC-PV(Q+D)Z AUX)
    Blend: CC-PVQZ-JKFIT
  @DF-RKS Final Energy:  -559.92685163150611
    Total Energy =                       -559.9268516315061106
    Molecular point group: c2v
  Basis Set: CC-PV(Q+D)Z
    Blend: CC-PV(Q+D)Z
  Basis Set: (CC-PV(Q+D)Z AUX)
    Blend: CC-PVQZ-JKFIT
  @DF-RKS Final Energy:  -559.92684052091965
    Total Energy =                       -559.9268405209197681
  Basis Set: CC-PV(Q+D)Z
    Blend: CC-PV(Q+D)Z
  Basis Set: (CC-PV(Q+D)Z AUX)
    Blend: CC-PVQZ-JKFIT
  @DF-RKS Final Energy:  -559.92686211567684
    Total Energy =                       -559.9268621156768404
  Basis Set: CC-PV(Q+D)Z
    Blend: CC-PV(Q+D)Z
  Basis Set: (CC-PV(Q+D)Z AUX)
    Blend: CC-PVQZ-JKFIT
  @DF-RKS Final Energy:  -559.92693434470118
    Total Energy =                       -559.9269343447011806
  @DF-RKS Final Energy:  -559.92693070321798
    Total Energy =                       -559.9269307032179768
  @DF-RKS Final Energy:  -559.92693733017154
    Total Energy =                       -559.9269373301715405
  @DF-RKS Final Energy:  -559.92694265392936
    Total Energy =                       -559.9269426539294727
  @DF-RKS Final Energy:  -559.92694242997482
    Total Energy =                       -559.9269424299748152
  @DF-RKS Final Energy:  -559.92694220849683
    Total Energy =                       -559.9269422084968255
  **** Optimization is complete! (in 3 steps) ****
    Final optimized geometry and variables:
  @DF-RKS Final Energy:  -559.92694265393038
    Total Energy =                       -559.9269426539303822
  @DF-RKS Final Energy:  -559.92694242997504
    Total Energy =                       -559.9269424299750426
  Basis Set: CC-PV(Q+D)Z
    Blend: CC-PV(Q+D)Z
  Basis Set: (CC-PV(Q+D)Z AUX)
    Blend: CC-PVQZ-JKFIT
  @DF-RKS Final Energy:  -559.92694220849660
    Total Energy =                       -559.9269422084965981
  Basis Set: CC-PV(Q+D)Z
    Blend: CC-PV(Q+D)Z
  Basis Set: (CC-PV(Q+D)Z AUX)
    Blend: CC-PVQZ-JKFIT
  @DF-RKS Final Energy:  -559.92694265392970
    Total Energy =                       -559.9269426539297001
  Multiplicity = 1
  Basis Set: CC-PV(Q+D)Z
    Blend: CC-PV(Q+D)Z
  Basis Set: (CC-PV(Q+D)Z AUX)
    Blend: CC-PVQZ-JKFIT
  @DF-RKS Final Energy:  -559.92694242997538
    Total Energy =                       -559.9269424299754974
    Molecular point group: c2v

    Geometry (in Angstrom), charge = 0, multiplicity = 1:

       Center              X                  Y                   Z               Mass
    ------------   -----------------  -----------------  -----------------  -----------------
         CL           0.000000000000     0.000000000000    -0.569722932279    34.968852682000
         F            0.000000000000     0.000000000000     1.048643779047    18.998403162730

  Charge       = 0
  Multiplicity = 1
  Basis Set: CC-PV(Q+D)Z
    Blend: CC-PV(Q+D)Z
  Basis Set: (CC-PV(Q+D)Z AUX)
    Blend: CC-PVQZ-JKFIT

    Orbital Energies [Eh]
    ---------------------

    Doubly Occupied:

       1A1  -101.634235     2A1   -24.811729     3A1    -9.644292
       4A1    -7.407307     1B1    -7.388588     1B2    -7.388588
       5A1    -1.377539     6A1    -0.962242     7A1    -0.646728
       2B2    -0.609126     2B1    -0.609126     3B2    -0.438136
       3B1    -0.438136

  @DF-RKS Final Energy:  -559.92694220849671

   => Energetics <=

    Nuclear Repulsion Energy =             50.0282863370257260
    One-Electron Energy =                -873.5522345591036810
    Two-Electron Energy =                 292.3788942348234059
    DFT Exchange-Correlation Energy =     -28.8917427159333826
    Empirical Dispersion Energy =           0.0000000000000000
    VV10 Nonlocal Energy =                  0.1098544946911780
    Total Energy =                       -559.9269422084967118

  Dipole Moment: [D]
     X:     0.0000      Y:     0.0000      Z:    -0.8546     Total:     0.8546

  Vibration                       6
  Freq [cm^-1]                 841.1491
  Irrep                           A1
  Reduced mass [u]             22.6381
  Force const [mDyne/A]         9.4370

  ==> Thermochemistry Components <==

  Entropy, S
    Electronic S            0.000 [cal/(mol K)]        0.000 [J/(mol K)]       0.00000000 [mEh/K] (multiplicity = 1)
    Translational S        37.879 [cal/(mol K)]      158.488 [J/(mol K)]       0.06036475 [mEh/K] (mol. weight = 53.9673 [u], P = 101325.00 [Pa])
    Rotational S           13.877 [cal/(mol K)]       58.062 [J/(mol K)]       0.02211448 [mEh/K] (symmetry no. = 1)
    Vibrational S           0.176 [cal/(mol K)]        0.738 [J/(mol K)]       0.00028097 [mEh/K]
  Total S                  51.933 [cal/(mol K)]      217.287 [J/(mol K)]       0.08276020 [mEh/K]
  Correction S              0.000 [cal/(mol K)]        0.000 [J/(mol K)]       0.00000000 [mEh/K]

  Constant volume heat capacity, Cv
    Electronic Cv           0.000 [cal/(mol K)]        0.000 [J/(mol K)]       0.00000000 [mEh/K]
    Translational Cv        2.981 [cal/(mol K)]       12.472 [J/(mol K)]       0.00475022 [mEh/K]
    Rotational Cv           1.987 [cal/(mol K)]        8.314 [J/(mol K)]       0.00316681 [mEh/K]
    Vibrational Cv          0.585 [cal/(mol K)]        2.449 [J/(mol K)]       0.00093274 [mEh/K]
  Total Cv                  5.553 [cal/(mol K)]       23.235 [J/(mol K)]       0.00884976 [mEh/K]
  Correction Cv             0.000 [cal/(mol K)]        0.000 [J/(mol K)]       0.00000000 [mEh/K]

  Constant pressure heat capacity, Cp
    Electronic Cp           0.000 [cal/(mol K)]        0.000 [J/(mol K)]       0.00000000 [mEh/K]
    Translational Cp        4.968 [cal/(mol K)]       20.786 [J/(mol K)]       0.00791703 [mEh/K]
    Rotational Cp           1.987 [cal/(mol K)]        8.314 [J/(mol K)]       0.00316681 [mEh/K]
    Vibrational Cp          0.585 [cal/(mol K)]        2.449 [J/(mol K)]       0.00093274 [mEh/K]
  Total Cp                  7.541 [cal/(mol K)]       31.550 [J/(mol K)]       0.01201657 [mEh/K]
  Correction Cp             0.000 [cal/(mol K)]        0.000 [J/(mol K)]       0.00000000 [mEh/K]

  ==> Thermochemistry Energy Analysis <==

  Raw electronic energy, E0
  Total E0, Electronic energy at well bottom at 0 [K]                 -559.92694265 [Eh]

  Zero-point energy, ZPE_vib = Sum_i nu_i / 2
    Electronic ZPE          0.000 [kcal/mol]        0.000 [kJ/mol]       0.00000000 [Eh]
    Translational ZPE       0.000 [kcal/mol]        0.000 [kJ/mol]       0.00000000 [Eh]
    Rotational ZPE          0.000 [kcal/mol]        0.000 [kJ/mol]       0.00000000 [Eh]
    Vibrational ZPE         1.202 [kcal/mol]        5.031 [kJ/mol]       0.00191628 [Eh]         420.575 [cm^-1]
  Correction ZPE            1.202 [kcal/mol]        5.031 [kJ/mol]       0.00191628 [Eh]         420.575 [cm^-1]
  Total ZPE, Electronic energy at 0 [K]                               -559.92502638 [Eh]

  Thermal Energy, E (includes ZPE)
    Electronic E            0.000 [kcal/mol]        0.000 [kJ/mol]       0.00000000 [Eh]
    Translational E         0.889 [kcal/mol]        3.718 [kJ/mol]       0.00141628 [Eh]
    Rotational E            0.592 [kcal/mol]        2.479 [kJ/mol]       0.00094418 [Eh]
    Vibrational E           1.245 [kcal/mol]        5.208 [kJ/mol]       0.00198361 [Eh]
  Correction E              2.726 [kcal/mol]       11.405 [kJ/mol]       0.00434407 [Eh]
  Total E, Electronic energy at  298.15 [K]                           -559.92259859 [Eh]

  Enthalpy, H_trans = E_trans + k_B * T
    Electronic H            0.000 [kcal/mol]        0.000 [kJ/mol]       0.00000000 [Eh]
    Translational H         1.481 [kcal/mol]        6.197 [kJ/mol]       0.00236046 [Eh]
    Rotational H            0.592 [kcal/mol]        2.479 [kJ/mol]       0.00094418 [Eh]
    Vibrational H           1.245 [kcal/mol]        5.208 [kJ/mol]       0.00198361 [Eh]
  Correction H              3.318 [kcal/mol]       13.884 [kJ/mol]       0.00528825 [Eh]
  Total H, Enthalpy at  298.15 [K]                                    -559.92165440 [Eh]

  Gibbs free energy, G = H - T * S
    Electronic G            0.000 [kcal/mol]        0.000 [kJ/mol]       0.00000000 [Eh]
    Translational G        -9.813 [kcal/mol]      -41.056 [kJ/mol]      -0.01563729 [Eh]
    Rotational G           -3.545 [kcal/mol]      -14.832 [kJ/mol]      -0.00564925 [Eh]
    Vibrational G           1.192 [kcal/mol]        4.988 [kJ/mol]       0.00189984 [Eh]
  Correction G            -12.165 [kcal/mol]      -50.900 [kJ/mol]      -0.01938670 [Eh]
  Total G, Free enthalpy at  298.15 [K]                               -559.94632935 [Eh]

*** Psi4 exiting successfully. Buy a developer a beer!
