                               Psi4 1.3.2 release

  ==> Input File <==

--------------------------------------------------------------------------
memory 144 GB

molecule {
0 1
C 0.0000000000 0.0000000000 0.0000000000
O 0.0000000000 0.0000000000 1.1626000000
O 0.0000000000 0.0000000000 -1.1626000000
}

set dynamic_level 1
set basis cc-pV(Q+d)Z

optimize("wB97X-V")
frequencies("wB97X-V")
--------------------------------------------------------------------------

    Molecular point group: d2h
  Charge       = 0
  Multiplicity = 1
  Basis Set: CC-PV(Q+D)Z
    Blend: CC-PV(Q+D)Z
  Basis Set: (CC-PV(Q+D)Z AUX)
    Blend: CC-PVQZ-JKFIT
  @DF-RKS Final Energy:  -188.61046006078524
    Total Energy =                       -188.6104600607852433
    Molecular point group: d2h
  Basis Set: CC-PV(Q+D)Z
    Blend: CC-PV(Q+D)Z
  Basis Set: (CC-PV(Q+D)Z AUX)
    Blend: CC-PVQZ-JKFIT
  @DF-RKS Final Energy:  -188.61047548242951
    Total Energy =                       -188.6104754824295071
  Basis Set: CC-PV(Q+D)Z
    Blend: CC-PV(Q+D)Z
  Basis Set: (CC-PV(Q+D)Z AUX)
    Blend: CC-PVQZ-JKFIT
  @DF-RKS Final Energy:  -188.61044285546348
    Total Energy =                       -188.6104428554634751
  Basis Set: CC-PV(Q+D)Z
    Blend: CC-PV(Q+D)Z
  Basis Set: (CC-PV(Q+D)Z AUX)
    Blend: CC-PVQZ-JKFIT
  @DF-RKS Final Energy:  -188.61053344198984
    Total Energy =                       -188.6105334419898441
  @DF-RKS Final Energy:  -188.61053387925170
    Total Energy =                       -188.6105338792517045
  @DF-RKS Final Energy:  -188.61053117310155
    Total Energy =                       -188.6105311731015490
  @DF-RKS Final Energy:  -188.61053394248330
    Total Energy =                       -188.6105339424833005
  @DF-RKS Final Energy:  -188.61053300458948
    Total Energy =                       -188.6105330045894846
  @DF-RKS Final Energy:  -188.61053304413539
    Total Energy =                       -188.6105330441353658
  **** Optimization is complete! (in 3 steps) ****
    Final optimized geometry and variables:
  @DF-RKS Final Energy:  -188.61053394248336
    Total Energy =                       -188.6105339424833574
  @DF-RKS Final Energy:  -188.61053300458937
    Total Energy =                       -188.6105330045893709
  @DF-RKS Final Energy:  -188.61053304413554
    Total Energy =                       -188.6105330441355363
  @DF-RKS Final Energy:  -188.61053394248344
    Total Energy =                       -188.6105339424834710
  @DF-RKS Final Energy:  -188.61053300458980
    Total Energy =                       -188.6105330045897972
  Basis Set: CC-PV(Q+D)Z
    Blend: CC-PV(Q+D)Z
  Basis Set: (CC-PV(Q+D)Z AUX)
    Blend: CC-PVQZ-JKFIT
  @DF-RKS Final Energy:  -188.61053304413571
    Total Energy =                       -188.6105330441357069
  Basis Set: CC-PV(Q+D)Z
    Blend: CC-PV(Q+D)Z
  Basis Set: (CC-PV(Q+D)Z AUX)
    Blend: CC-PVQZ-JKFIT
  @DF-RKS Final Energy:  -188.61053114730120
    Total Energy =                       -188.6105311473012023
  Multiplicity = 1
  Basis Set: CC-PV(Q+D)Z
    Blend: CC-PV(Q+D)Z
  Basis Set: (CC-PV(Q+D)Z AUX)
    Blend: CC-PVQZ-JKFIT
  @DF-RKS Final Energy:  -188.61053371848539
    Total Energy =                       -188.6105337184853852
    Molecular point group: c2v

    Geometry (in Angstrom), charge = 0, multiplicity = 1:

       Center              X                  Y                   Z               Mass
    ------------   -----------------  -----------------  -----------------  -----------------
         C           -0.000651343880     0.000000000000     0.000000000000    12.000000000000
         O            0.000244331612     0.000000000000     1.158378462699    15.994914619570
         O            0.000244331612     0.000000000000    -1.158378462699    15.994914619570

  Charge       = 0
  Multiplicity = 1
  Basis Set: CC-PV(Q+D)Z
    Blend: CC-PV(Q+D)Z
  Basis Set: (CC-PV(Q+D)Z AUX)
    Blend: CC-PVQZ-JKFIT

    Orbital Energies [Eh]
    ---------------------

    Doubly Occupied:

       1B2   -19.293620     1A1   -19.293595     2A1   -10.460492
       3A1    -1.299028     2B2    -1.254482     4A1    -0.685234
       1B1    -0.641036     5A1    -0.641036     3B2    -0.638246
       1A2    -0.482118     4B2    -0.482117

  @DF-RKS Final Energy:  -188.61053371846697

   => Energetics <=

    Nuclear Repulsion Energy =             58.4736940135610439
    One-Electron Energy =                -373.0178075868725500
    Two-Electron Energy =                 141.9167423344943586
    DFT Exchange-Correlation Energy =     -16.0749305878244435
    Empirical Dispersion Energy =           0.0000000000000000
    VV10 Nonlocal Energy =                  0.0917681081746387
    Total Energy =                       -188.6105337184669395

  Dipole Moment: [D]
     X:    -0.0024      Y:     0.0000      Z:     0.0000     Total:     0.0024

  Vibration                       6                   7                   8
  Freq [cm^-1]                 688.1314            688.1597           1393.1541
  Irrep                          B2u                 B3u                  Ag
  Reduced mass [u]             12.8774             12.8774             15.9949
  Force const [mDyne/A]         3.5927              3.5930             18.2907

  Vibration                       9
  Freq [cm^-1]                2430.8286
  Irrep                          B1u
  Reduced mass [u]             12.8774
  Force const [mDyne/A]        44.8318

  ==> Thermochemistry Components <==

  Entropy, S
    Electronic S            0.000 [cal/(mol K)]        0.000 [J/(mol K)]       0.00000000 [mEh/K] (multiplicity = 1)
    Translational S        37.270 [cal/(mol K)]      155.938 [J/(mol K)]       0.05939371 [mEh/K] (mol. weight = 43.9898 [u], P = 101325.00 [Pa])
    Rotational S           13.066 [cal/(mol K)]       54.670 [J/(mol K)]       0.02082277 [mEh/K] (symmetry no. = 2)
    Vibrational S           0.660 [cal/(mol K)]        2.760 [J/(mol K)]       0.00105109 [mEh/K]
  Total S                  50.996 [cal/(mol K)]      213.368 [J/(mol K)]       0.08126758 [mEh/K]
  Correction S              0.000 [cal/(mol K)]        0.000 [J/(mol K)]       0.00000000 [mEh/K]

  Constant volume heat capacity, Cv
    Electronic Cv           0.000 [cal/(mol K)]        0.000 [J/(mol K)]       0.00000000 [mEh/K]
    Translational Cv        2.981 [cal/(mol K)]       12.472 [J/(mol K)]       0.00475022 [mEh/K]
    Rotational Cv           1.987 [cal/(mol K)]        8.314 [J/(mol K)]       0.00316681 [mEh/K]
    Vibrational Cv          1.815 [cal/(mol K)]        7.593 [J/(mol K)]       0.00289190 [mEh/K]
  Total Cv                  6.783 [cal/(mol K)]       28.379 [J/(mol K)]       0.01080893 [mEh/K]
  Correction Cv             0.000 [cal/(mol K)]        0.000 [J/(mol K)]       0.00000000 [mEh/K]

  Constant pressure heat capacity, Cp
    Electronic Cp           0.000 [cal/(mol K)]        0.000 [J/(mol K)]       0.00000000 [mEh/K]
    Translational Cp        4.968 [cal/(mol K)]       20.786 [J/(mol K)]       0.00791703 [mEh/K]
    Rotational Cp           1.987 [cal/(mol K)]        8.314 [J/(mol K)]       0.00316681 [mEh/K]
    Vibrational Cp          1.815 [cal/(mol K)]        7.593 [J/(mol K)]       0.00289190 [mEh/K]
  Total Cp                  8.770 [cal/(mol K)]       36.693 [J/(mol K)]       0.01397574 [mEh/K]
  Correction Cp             0.000 [cal/(mol K)]        0.000 [J/(mol K)]       0.00000000 [mEh/K]

  ==> Thermochemistry Energy Analysis <==

  Raw electronic energy, E0
  Total E0, Electronic energy at well bottom at 0 [K]                 -188.61053394 [Eh]

  Zero-point energy, ZPE_vib = Sum_i nu_i / 2
    Electronic ZPE          0.000 [kcal/mol]        0.000 [kJ/mol]       0.00000000 [Eh]
    Translational ZPE       0.000 [kcal/mol]        0.000 [kJ/mol]       0.00000000 [Eh]
    Rotational ZPE          0.000 [kcal/mol]        0.000 [kJ/mol]       0.00000000 [Eh]
    Vibrational ZPE         7.434 [kcal/mol]       31.105 [kJ/mol]       0.01184710 [Eh]        2600.137 [cm^-1]
  Correction ZPE            7.434 [kcal/mol]       31.105 [kJ/mol]       0.01184710 [Eh]        2600.137 [cm^-1]
  Total ZPE, Electronic energy at 0 [K]                               -188.59868685 [Eh]

  Thermal Energy, E (includes ZPE)
    Electronic E            0.000 [kcal/mol]        0.000 [kJ/mol]       0.00000000 [Eh]
    Translational E         0.889 [kcal/mol]        3.718 [kJ/mol]       0.00141628 [Eh]
    Rotational E            0.592 [kcal/mol]        2.479 [kJ/mol]       0.00094418 [Eh]
    Vibrational E           7.586 [kcal/mol]       31.742 [kJ/mol]       0.01208985 [Eh]
  Correction E              9.068 [kcal/mol]       37.939 [kJ/mol]       0.01445032 [Eh]
  Total E, Electronic energy at  298.15 [K]                           -188.59608363 [Eh]

  Enthalpy, H_trans = E_trans + k_B * T
    Electronic H            0.000 [kcal/mol]        0.000 [kJ/mol]       0.00000000 [Eh]
    Translational H         1.481 [kcal/mol]        6.197 [kJ/mol]       0.00236046 [Eh]
    Rotational H            0.592 [kcal/mol]        2.479 [kJ/mol]       0.00094418 [Eh]
    Vibrational H           7.586 [kcal/mol]       31.742 [kJ/mol]       0.01208985 [Eh]
  Correction H              9.660 [kcal/mol]       40.418 [kJ/mol]       0.01539450 [Eh]
  Total H, Enthalpy at  298.15 [K]                                    -188.59513944 [Eh]

  Gibbs free energy, G = H - T * S
    Electronic G            0.000 [kcal/mol]        0.000 [kJ/mol]       0.00000000 [Eh]
    Translational G        -9.631 [kcal/mol]      -40.296 [kJ/mol]      -0.01534777 [Eh]
    Rotational G           -3.303 [kcal/mol]      -13.821 [kJ/mol]      -0.00526412 [Eh]
    Vibrational G           7.390 [kcal/mol]       30.919 [kJ/mol]       0.01177647 [Eh]
  Correction G             -5.544 [kcal/mol]      -23.197 [kJ/mol]      -0.00883543 [Eh]
  Total G, Free enthalpy at  298.15 [K]                               -188.61936937 [Eh]

*** Psi4 exiting successfully. Buy a developer a beer!
