                               Psi4 1.3.2 release

  ==> Input File <==

--------------------------------------------------------------------------
memory 144 GB

molecule {
0 1
C 0.0000000000 0.0000000000 0.0000000000
O 0.0000000000 0.0000000000 1.1314000000
}

set dynamic_level 1
set basis cc-pV(Q+d)Z

optimize("wB97X-V")
frequencies("wB97X-V")
--------------------------------------------------------------------------

    Molecular point group: c2v
  Charge       = 0
  Multiplicity = 1
  Basis Set: CC-PV(Q+D)Z
    Blend: CC-PV(Q+D)Z
  Basis Set: (CC-PV(Q+D)Z AUX)
    Blend: CC-PVQZ-JKFIT
  @DF-RKS Final Energy:  -113.32943270094600
    Total Energy =                       -113.3294327009460005
    Molecular point group: c2v
  Basis Set: CC-PV(Q+D)Z
    Blend: CC-PV(Q+D)Z
  Basis Set: (CC-PV(Q+D)Z AUX)
    Blend: CC-PVQZ-JKFIT
  @DF-RKS Final Energy:  -113.32940006279378
    Total Energy =                       -113.3294000627937663
  Basis Set: CC-PV(Q+D)Z
    Blend: CC-PV(Q+D)Z
  Basis Set: (CC-PV(Q+D)Z AUX)
    Blend: CC-PVQZ-JKFIT
  @DF-RKS Final Energy:  -113.32946080317932
    Total Energy =                       -113.3294608031793160
  Basis Set: CC-PV(Q+D)Z
    Blend: CC-PV(Q+D)Z
  Basis Set: (CC-PV(Q+D)Z AUX)
    Blend: CC-PVQZ-JKFIT
  @DF-RKS Final Energy:  -113.32953078103168
    Total Energy =                       -113.3295307810316785
  @DF-RKS Final Energy:  -113.32952399513705
    Total Energy =                       -113.3295239951370377
  @DF-RKS Final Energy:  -113.32953285030031
    Total Energy =                       -113.3295328503002963
  @DF-RKS Final Energy:  -113.32953285883377
    Total Energy =                       -113.3295328588337725
  @DF-RKS Final Energy:  -113.32953058667731
    Total Energy =                       -113.3295305866773077
  @DF-RKS Final Energy:  -113.32953038257743
    Total Energy =                       -113.3295303825774312
  **** Optimization is complete! (in 3 steps) ****
    Final optimized geometry and variables:
  @DF-RKS Final Energy:  -113.32953285883359
    Total Energy =                       -113.3295328588336019
  @DF-RKS Final Energy:  -113.32953058667496
    Total Energy =                       -113.3295305866749629
  Basis Set: CC-PV(Q+D)Z
    Blend: CC-PV(Q+D)Z
  Basis Set: (CC-PV(Q+D)Z AUX)
    Blend: CC-PVQZ-JKFIT
  @DF-RKS Final Energy:  -113.32953038257575
    Total Energy =                       -113.3295303825757543
  Basis Set: CC-PV(Q+D)Z
    Blend: CC-PV(Q+D)Z
  Basis Set: (CC-PV(Q+D)Z AUX)
    Blend: CC-PVQZ-JKFIT
  @DF-RKS Final Energy:  -113.32953285883380
    Total Energy =                       -113.3295328588337867
  Multiplicity = 1
  Basis Set: CC-PV(Q+D)Z
    Blend: CC-PV(Q+D)Z
  Basis Set: (CC-PV(Q+D)Z AUX)
    Blend: CC-PVQZ-JKFIT
  @DF-RKS Final Energy:  -113.32953058667522
    Total Energy =                       -113.3295305866752187
    Molecular point group: c2v

    Geometry (in Angstrom), charge = 0, multiplicity = 1:

       Center              X                  Y                   Z               Mass
    ------------   -----------------  -----------------  -----------------  -----------------
         C            0.000000000000     0.000000000000    -0.642058437892    12.000000000000
         O            0.000000000000     0.000000000000     0.481696929177    15.994914619570

  Charge       = 0
  Multiplicity = 1
  Basis Set: CC-PV(Q+D)Z
    Blend: CC-PV(Q+D)Z
  Basis Set: (CC-PV(Q+D)Z AUX)
    Blend: CC-PVQZ-JKFIT

    Orbital Energies [Eh]
    ---------------------

    Doubly Occupied:

       1A1   -19.317802     2A1   -10.384894     3A1    -1.297739
       4A1    -0.695791     1B1    -0.591408     1B2    -0.591408
       5A1    -0.492020

  @DF-RKS Final Energy:  -113.32953038257605

   => Energetics <=

    Nuclear Repulsion Energy =             22.6032345263975287
    One-Electron Energy =                -198.4974951011446933
    Two-Electron Energy =                  72.3585723594045049
    DFT Exchange-Correlation Energy =      -9.8529749869533134
    Empirical Dispersion Energy =           0.0000000000000000
    VV10 Nonlocal Energy =                  0.0591328197199204
    Total Energy =                       -113.3295303825760527

  Dipole Moment: [D]
     X:     0.0000      Y:     0.0000      Z:     0.1008     Total:     0.1008

  Vibration                       6
  Freq [cm^-1]                2240.3128
  Irrep                           A1
  Reduced mass [u]             13.4388
  Force const [mDyne/A]        39.7399

  ==> Thermochemistry Components <==

  Entropy, S
    Electronic S            0.000 [cal/(mol K)]        0.000 [J/(mol K)]       0.00000000 [mEh/K] (multiplicity = 1)
    Translational S        35.923 [cal/(mol K)]      150.302 [J/(mol K)]       0.05724692 [mEh/K] (mol. weight = 27.9949 [u], P = 101325.00 [Pa])
    Rotational S           11.266 [cal/(mol K)]       47.137 [J/(mol K)]       0.01795361 [mEh/K] (symmetry no. = 1)
    Vibrational S           0.000 [cal/(mol K)]        0.002 [J/(mol K)]       0.00000075 [mEh/K]
  Total S                  47.190 [cal/(mol K)]      197.441 [J/(mol K)]       0.07520129 [mEh/K]
  Correction S              0.000 [cal/(mol K)]        0.000 [J/(mol K)]       0.00000000 [mEh/K]

  Constant volume heat capacity, Cv
    Electronic Cv           0.000 [cal/(mol K)]        0.000 [J/(mol K)]       0.00000000 [mEh/K]
    Translational Cv        2.981 [cal/(mol K)]       12.472 [J/(mol K)]       0.00475022 [mEh/K]
    Rotational Cv           1.987 [cal/(mol K)]        8.314 [J/(mol K)]       0.00316681 [mEh/K]
    Vibrational Cv          0.005 [cal/(mol K)]        0.020 [J/(mol K)]       0.00000747 [mEh/K]
  Total Cv                  4.973 [cal/(mol K)]       20.806 [J/(mol K)]       0.00792449 [mEh/K]
  Correction Cv             0.000 [cal/(mol K)]        0.000 [J/(mol K)]       0.00000000 [mEh/K]

  Constant pressure heat capacity, Cp
    Electronic Cp           0.000 [cal/(mol K)]        0.000 [J/(mol K)]       0.00000000 [mEh/K]
    Translational Cp        4.968 [cal/(mol K)]       20.786 [J/(mol K)]       0.00791703 [mEh/K]
    Rotational Cp           1.987 [cal/(mol K)]        8.314 [J/(mol K)]       0.00316681 [mEh/K]
    Vibrational Cp          0.005 [cal/(mol K)]        0.020 [J/(mol K)]       0.00000747 [mEh/K]
  Total Cp                  6.960 [cal/(mol K)]       29.120 [J/(mol K)]       0.01109130 [mEh/K]
  Correction Cp             0.000 [cal/(mol K)]        0.000 [J/(mol K)]       0.00000000 [mEh/K]

  ==> Thermochemistry Energy Analysis <==

  Raw electronic energy, E0
  Total E0, Electronic energy at well bottom at 0 [K]                 -113.32953286 [Eh]

  Zero-point energy, ZPE_vib = Sum_i nu_i / 2
    Electronic ZPE          0.000 [kcal/mol]        0.000 [kJ/mol]       0.00000000 [Eh]
    Translational ZPE       0.000 [kcal/mol]        0.000 [kJ/mol]       0.00000000 [Eh]
    Rotational ZPE          0.000 [kcal/mol]        0.000 [kJ/mol]       0.00000000 [Eh]
    Vibrational ZPE         3.203 [kcal/mol]       13.400 [kJ/mol]       0.00510381 [Eh]        1120.156 [cm^-1]
  Correction ZPE            3.203 [kcal/mol]       13.400 [kJ/mol]       0.00510381 [Eh]        1120.156 [cm^-1]
  Total ZPE, Electronic energy at 0 [K]                               -113.32442905 [Eh]

  Thermal Energy, E (includes ZPE)
    Electronic E            0.000 [kcal/mol]        0.000 [kJ/mol]       0.00000000 [Eh]
    Translational E         0.889 [kcal/mol]        3.718 [kJ/mol]       0.00141628 [Eh]
    Rotational E            0.592 [kcal/mol]        2.479 [kJ/mol]       0.00094418 [Eh]
    Vibrational E           3.203 [kcal/mol]       13.401 [kJ/mol]       0.00510401 [Eh]
  Correction E              4.684 [kcal/mol]       19.598 [kJ/mol]       0.00746448 [Eh]
  Total E, Electronic energy at  298.15 [K]                           -113.32206838 [Eh]

  Enthalpy, H_trans = E_trans + k_B * T
    Electronic H            0.000 [kcal/mol]        0.000 [kJ/mol]       0.00000000 [Eh]
    Translational H         1.481 [kcal/mol]        6.197 [kJ/mol]       0.00236046 [Eh]
    Rotational H            0.592 [kcal/mol]        2.479 [kJ/mol]       0.00094418 [Eh]
    Vibrational H           3.203 [kcal/mol]       13.401 [kJ/mol]       0.00510401 [Eh]
  Correction H              5.277 [kcal/mol]       22.077 [kJ/mol]       0.00840866 [Eh]
  Total H, Enthalpy at  298.15 [K]                                    -113.32112420 [Eh]

  Gibbs free energy, G = H - T * S
    Electronic G            0.000 [kcal/mol]        0.000 [kJ/mol]       0.00000000 [Eh]
    Translational G        -9.229 [kcal/mol]      -38.615 [kJ/mol]      -0.01470771 [Eh]
    Rotational G           -2.766 [kcal/mol]      -11.575 [kJ/mol]      -0.00440868 [Eh]
    Vibrational G           3.203 [kcal/mol]       13.400 [kJ/mol]       0.00510379 [Eh]
  Correction G             -8.793 [kcal/mol]      -36.790 [kJ/mol]      -0.01401260 [Eh]
  Total G, Free enthalpy at  298.15 [K]                               -113.34354546 [Eh]

*** Psi4 exiting successfully. Buy a developer a beer!
