                               Psi4 1.3.2 release

  ==> Input File <==

--------------------------------------------------------------------------
memory 144 GB

molecule {
0 1
C 0.0000000000 0.0000000000 0.0000000000
S 0.0000000000 0.0000000000 1.5576337400
S 0.0000000000 0.0000000000 -1.5576337400
}

set dynamic_level 1
set basis cc-pV(Q+d)Z

optimize("wB97X-V")
frequencies("wB97X-V")
--------------------------------------------------------------------------

    Molecular point group: d2h
  Charge       = 0
  Multiplicity = 1
  Basis Set: CC-PV(Q+D)Z
    Blend: CC-PV(Q+D)Z
  Basis Set: (CC-PV(Q+D)Z AUX)
    Blend: CC-PVQZ-JKFIT
  @DF-RKS Final Energy:  -834.40553607979234
    Total Energy =                       -834.4055360797922276
    Molecular point group: d2h
  Basis Set: CC-PV(Q+D)Z
    Blend: CC-PV(Q+D)Z
  Basis Set: (CC-PV(Q+D)Z AUX)
    Blend: CC-PVQZ-JKFIT
  @DF-RKS Final Energy:  -834.40555102085568
    Total Energy =                       -834.4055510208555688
  Basis Set: CC-PV(Q+D)Z
    Blend: CC-PV(Q+D)Z
  Basis Set: (CC-PV(Q+D)Z AUX)
    Blend: CC-PVQZ-JKFIT
  @DF-RKS Final Energy:  -834.40552070064723
    Total Energy =                       -834.4055207006472301
  Basis Set: CC-PV(Q+D)Z
    Blend: CC-PV(Q+D)Z
  Basis Set: (CC-PV(Q+D)Z AUX)
    Blend: CC-PVQZ-JKFIT
  @DF-RKS Final Energy:  -834.40579249581322
    Total Energy =                       -834.4057924958132162
  @DF-RKS Final Energy:  -834.40579294368388
    Total Energy =                       -834.4057929436838776
  @DF-RKS Final Energy:  -834.40579158226649
    Total Energy =                       -834.4057915822663745
  @DF-RKS Final Energy:  -834.40579299312094
    Total Energy =                       -834.4057929931210538
  @DF-RKS Final Energy:  -834.40579273859885
    Total Energy =                       -834.4057927385988478
  @DF-RKS Final Energy:  -834.40579278124483
    Total Energy =                       -834.4057927812448270
  **** Optimization is complete! (in 3 steps) ****
    Final optimized geometry and variables:
  @DF-RKS Final Energy:  -834.40579299312151
    Total Energy =                       -834.4057929931215085
  @DF-RKS Final Energy:  -834.40579273859908
    Total Energy =                       -834.4057927385990752
  @DF-RKS Final Energy:  -834.40579278124517
    Total Energy =                       -834.4057927812450544
  @DF-RKS Final Energy:  -834.40579299312117
    Total Energy =                       -834.4057929931212811
  @DF-RKS Final Energy:  -834.40579273859908
    Total Energy =                       -834.4057927385991889
  Basis Set: CC-PV(Q+D)Z
    Blend: CC-PV(Q+D)Z
  Basis Set: (CC-PV(Q+D)Z AUX)
    Blend: CC-PVQZ-JKFIT
  @DF-RKS Final Energy:  -834.40579278124528
    Total Energy =                       -834.4057927812451680
  Basis Set: CC-PV(Q+D)Z
    Blend: CC-PV(Q+D)Z
  Basis Set: (CC-PV(Q+D)Z AUX)
    Blend: CC-PVQZ-JKFIT
  @DF-RKS Final Energy:  -834.40579179981989
    Total Energy =                       -834.4057917998197809
  Multiplicity = 1
  Basis Set: CC-PV(Q+D)Z
    Blend: CC-PV(Q+D)Z
  Basis Set: (CC-PV(Q+D)Z AUX)
    Blend: CC-PVQZ-JKFIT
  @DF-RKS Final Energy:  -834.40579290922813
    Total Energy =                       -834.4057929092280119
    Molecular point group: c2v

    Geometry (in Angstrom), charge = 0, multiplicity = 1:

       Center              X                  Y                   Z               Mass
    ------------   -----------------  -----------------  -----------------  -----------------
         C           -0.000700864006     0.000000000000     0.000000000000    12.000000000000
         S            0.000131526794     0.000000000000     1.546516470111    31.972071174400
         S            0.000131526794     0.000000000000    -1.546516470111    31.972071174400

  Charge       = 0
  Multiplicity = 1
  Basis Set: CC-PV(Q+D)Z
    Blend: CC-PV(Q+D)Z
  Basis Set: (CC-PV(Q+D)Z AUX)
    Blend: CC-PVQZ-JKFIT

    Orbital Energies [Eh]
    ---------------------

    Doubly Occupied:

       1B2   -88.919773     1A1   -88.919771     2A1   -10.408006
       2B2    -8.077387     3A1    -8.077366     3B2    -6.032887
       4A1    -6.032887     1A2    -6.028983     4B2    -6.028983
       1B1    -6.028982     5A1    -6.028982     6A1    -0.997828
       5B2    -0.899934     7A1    -0.621379     6B2    -0.537692
       8A1    -0.505763     2B1    -0.505763     2A2    -0.364913
       7B2    -0.364913

  @DF-RKS Final Energy:  -834.40579290965502

   => Energetics <=

    Nuclear Repulsion Energy =            109.4955637202334628
    One-Electron Energy =               -1368.1049977658631178
    Two-Electron Energy =                 466.5482112290242753
    DFT Exchange-Correlation Energy =     -42.5016220168770644
    Empirical Dispersion Energy =           0.0000000000000000
    VV10 Nonlocal Energy =                  0.1570519238274581
    Total Energy =                       -834.4057929096551334

  Dipole Moment: [D]
     X:     0.0006      Y:     0.0000      Z:     0.0000     Total:     0.0006

  Vibration                       6                   7                   8
  Freq [cm^-1]                 420.0534            421.1262            702.1220
  Irrep                          B3u                 B2u                  Ag
  Reduced mass [u]             13.3142             13.3142             31.9721
  Force const [mDyne/A]         1.3841              1.3912              9.2864

  Vibration                       9
  Freq [cm^-1]                1588.2700
  Irrep                          B1u
  Reduced mass [u]             13.3142
  Force const [mDyne/A]        19.7885

  ==> Thermochemistry Components <==

  Entropy, S
    Electronic S            0.000 [cal/(mol K)]        0.000 [J/(mol K)]       0.00000000 [mEh/K] (multiplicity = 1)
    Translational S        38.898 [cal/(mol K)]      162.748 [J/(mol K)]       0.06198752 [mEh/K] (mol. weight = 75.9441 [u], P = 101325.00 [Pa])
    Rotational S           15.591 [cal/(mol K)]       65.234 [J/(mol K)]       0.02484639 [mEh/K] (symmetry no. = 2)
    Vibrational S           2.092 [cal/(mol K)]        8.751 [J/(mol K)]       0.00333317 [mEh/K]
  Total S                  56.581 [cal/(mol K)]      236.734 [J/(mol K)]       0.09016709 [mEh/K]
  Correction S              0.000 [cal/(mol K)]        0.000 [J/(mol K)]       0.00000000 [mEh/K]

  Constant volume heat capacity, Cv
    Electronic Cv           0.000 [cal/(mol K)]        0.000 [J/(mol K)]       0.00000000 [mEh/K]
    Translational Cv        2.981 [cal/(mol K)]       12.472 [J/(mol K)]       0.00475022 [mEh/K]
    Rotational Cv           1.987 [cal/(mol K)]        8.314 [J/(mol K)]       0.00316681 [mEh/K]
    Vibrational Cv          3.731 [cal/(mol K)]       15.610 [J/(mol K)]       0.00594566 [mEh/K]
  Total Cv                  8.699 [cal/(mol K)]       36.396 [J/(mol K)]       0.01386269 [mEh/K]
  Correction Cv             0.000 [cal/(mol K)]        0.000 [J/(mol K)]       0.00000000 [mEh/K]

  Constant pressure heat capacity, Cp
    Electronic Cp           0.000 [cal/(mol K)]        0.000 [J/(mol K)]       0.00000000 [mEh/K]
    Translational Cp        4.968 [cal/(mol K)]       20.786 [J/(mol K)]       0.00791703 [mEh/K]
    Rotational Cp           1.987 [cal/(mol K)]        8.314 [J/(mol K)]       0.00316681 [mEh/K]
    Vibrational Cp          3.731 [cal/(mol K)]       15.610 [J/(mol K)]       0.00594566 [mEh/K]
  Total Cp                 10.686 [cal/(mol K)]       44.711 [J/(mol K)]       0.01702950 [mEh/K]
  Correction Cp             0.000 [cal/(mol K)]        0.000 [J/(mol K)]       0.00000000 [mEh/K]

  ==> Thermochemistry Energy Analysis <==

  Raw electronic energy, E0
  Total E0, Electronic energy at well bottom at 0 [K]                 -834.40579299 [Eh]

  Zero-point energy, ZPE_vib = Sum_i nu_i / 2
    Electronic ZPE          0.000 [kcal/mol]        0.000 [kJ/mol]       0.00000000 [Eh]
    Translational ZPE       0.000 [kcal/mol]        0.000 [kJ/mol]       0.00000000 [Eh]
    Rotational ZPE          0.000 [kcal/mol]        0.000 [kJ/mol]       0.00000000 [Eh]
    Vibrational ZPE         4.477 [kcal/mol]       18.731 [kJ/mol]       0.00713424 [Eh]        1565.786 [cm^-1]
  Correction ZPE            4.477 [kcal/mol]       18.731 [kJ/mol]       0.00713424 [Eh]        1565.786 [cm^-1]
  Total ZPE, Electronic energy at 0 [K]                               -834.39865875 [Eh]

  Thermal Energy, E (includes ZPE)
    Electronic E            0.000 [kcal/mol]        0.000 [kJ/mol]       0.00000000 [Eh]
    Translational E         0.889 [kcal/mol]        3.718 [kJ/mol]       0.00141628 [Eh]
    Rotational E            0.592 [kcal/mol]        2.479 [kJ/mol]       0.00094418 [Eh]
    Vibrational E           4.913 [kcal/mol]       20.555 [kJ/mol]       0.00782917 [Eh]
  Correction E              6.394 [kcal/mol]       26.753 [kJ/mol]       0.01018963 [Eh]
  Total E, Electronic energy at  298.15 [K]                           -834.39560336 [Eh]

  Enthalpy, H_trans = E_trans + k_B * T
    Electronic H            0.000 [kcal/mol]        0.000 [kJ/mol]       0.00000000 [Eh]
    Translational H         1.481 [kcal/mol]        6.197 [kJ/mol]       0.00236046 [Eh]
    Rotational H            0.592 [kcal/mol]        2.479 [kJ/mol]       0.00094418 [Eh]
    Vibrational H           4.913 [kcal/mol]       20.555 [kJ/mol]       0.00782917 [Eh]
  Correction H              6.987 [kcal/mol]       29.232 [kJ/mol]       0.01113381 [Eh]
  Total H, Enthalpy at  298.15 [K]                                    -834.39465918 [Eh]

  Gibbs free energy, G = H - T * S
    Electronic G            0.000 [kcal/mol]        0.000 [kJ/mol]       0.00000000 [Eh]
    Translational G       -10.116 [kcal/mol]      -42.326 [kJ/mol]      -0.01612112 [Eh]
    Rotational G           -4.056 [kcal/mol]      -16.971 [kJ/mol]      -0.00646377 [Eh]
    Vibrational G           4.289 [kcal/mol]       17.946 [kJ/mol]       0.00683538 [Eh]
  Correction G             -9.883 [kcal/mol]      -41.350 [kJ/mol]      -0.01574950 [Eh]
  Total G, Free enthalpy at  298.15 [K]                               -834.42154250 [Eh]

*** Psi4 exiting successfully. Buy a developer a beer!
