                               Psi4 1.3.2 release

  ==> Input File <==

--------------------------------------------------------------------------
memory 144 GB

molecule {
0 1
C 0.0000000000 0.0000000000 0.0000000000
S 0.0000000000 0.0000000000 1.5415329200
}

set dynamic_level 1
set basis cc-pV(Q+d)Z

optimize("wB97X-V")
frequencies("wB97X-V")
--------------------------------------------------------------------------

    Molecular point group: c2v
  Charge       = 0
  Multiplicity = 1
  Basis Set: CC-PV(Q+D)Z
    Blend: CC-PV(Q+D)Z
  Basis Set: (CC-PV(Q+D)Z AUX)
    Blend: CC-PVQZ-JKFIT
  @DF-RKS Final Energy:  -436.17291238487019
    Total Energy =                       -436.1729123848701306
    Molecular point group: c2v
  Basis Set: CC-PV(Q+D)Z
    Blend: CC-PV(Q+D)Z
  Basis Set: (CC-PV(Q+D)Z AUX)
    Blend: CC-PVQZ-JKFIT
  @DF-RKS Final Energy:  -436.17287612415771
    Total Energy =                       -436.1728761241576535
  Basis Set: CC-PV(Q+D)Z
    Blend: CC-PV(Q+D)Z
  Basis Set: (CC-PV(Q+D)Z AUX)
    Blend: CC-PVQZ-JKFIT
  @DF-RKS Final Energy:  -436.17294704724355
    Total Energy =                       -436.1729470472435537
  Basis Set: CC-PV(Q+D)Z
    Blend: CC-PV(Q+D)Z
  Basis Set: (CC-PV(Q+D)Z AUX)
    Blend: CC-PVQZ-JKFIT
  @DF-RKS Final Energy:  -436.17328940953644
    Total Energy =                       -436.1732894095364372
  @DF-RKS Final Energy:  -436.17328520072880
    Total Energy =                       -436.1732852007288557
  @DF-RKS Final Energy:  -436.17329186671390
    Total Energy =                       -436.1732918667138961
  @DF-RKS Final Energy:  -436.17329256565574
    Total Energy =                       -436.1732925656557427
  @DF-RKS Final Energy:  -436.17329185267789
    Total Energy =                       -436.1732918526778349
  @DF-RKS Final Energy:  -436.17329151021983
    Total Energy =                       -436.1732915102198263
  **** Optimization is complete! (in 3 steps) ****
    Final optimized geometry and variables:
  @DF-RKS Final Energy:  -436.17329256565574
    Total Energy =                       -436.1732925656557427
  @DF-RKS Final Energy:  -436.17329185267801
    Total Energy =                       -436.1732918526780054
  Basis Set: CC-PV(Q+D)Z
    Blend: CC-PV(Q+D)Z
  Basis Set: (CC-PV(Q+D)Z AUX)
    Blend: CC-PVQZ-JKFIT
  @DF-RKS Final Energy:  -436.17329150996756
    Total Energy =                       -436.1732915099675552
  Basis Set: CC-PV(Q+D)Z
    Blend: CC-PV(Q+D)Z
  Basis Set: (CC-PV(Q+D)Z AUX)
    Blend: CC-PVQZ-JKFIT
  @DF-RKS Final Energy:  -436.17329256565563
    Total Energy =                       -436.1732925656556290
  Multiplicity = 1
  Basis Set: CC-PV(Q+D)Z
    Blend: CC-PV(Q+D)Z
  Basis Set: (CC-PV(Q+D)Z AUX)
    Blend: CC-PVQZ-JKFIT
  @DF-RKS Final Energy:  -436.17329185267812
    Total Energy =                       -436.1732918526781191
    Molecular point group: c2v

    Geometry (in Angstrom), charge = 0, multiplicity = 1:

       Center              X                  Y                   Z               Mass
    ------------   -----------------  -----------------  -----------------  -----------------
         C            0.000000000000     0.000000000000    -1.106399671871    12.000000000000
         S            0.000000000000     0.000000000000     0.415262307845    31.972071174400

  Charge       = 0
  Multiplicity = 1
  Basis Set: CC-PV(Q+D)Z
    Blend: CC-PV(Q+D)Z
  Basis Set: (CC-PV(Q+D)Z AUX)
    Blend: CC-PVQZ-JKFIT

    Orbital Energies [Eh]
    ---------------------

    Doubly Occupied:

       1A1   -88.936561     2A1   -10.370821     3A1    -8.097115
       1B1    -6.050270     1B2    -6.050270     4A1    -6.048823
       5A1    -0.969727     6A1    -0.635789     2B1    -0.459061
       2B2    -0.459061     7A1    -0.419156

  @DF-RKS Final Energy:  -436.17329150996738

   => Energetics <=

    Nuclear Repulsion Energy =             33.3852149173127728
    One-Electron Energy =                -666.4397504180053602
    Two-Electron Energy =                 219.8494156698183417
    DFT Exchange-Correlation Energy =     -23.0602373314707165
    Empirical Dispersion Energy =           0.0000000000000000
    VV10 Nonlocal Energy =                  0.0920656523775853
    Total Energy =                       -436.1732915099674415

  Dipole Moment: [D]
     X:     0.0000      Y:     0.0000      Z:     1.9602     Total:     1.9602

  Vibration                       6
  Freq [cm^-1]                1367.2790
  Irrep                           A1
  Reduced mass [u]             14.4661
  Force const [mDyne/A]        15.9337

  ==> Thermochemistry Components <==

  Entropy, S
    Electronic S            0.000 [cal/(mol K)]        0.000 [J/(mol K)]       0.00000000 [mEh/K] (multiplicity = 1)
    Translational S        37.269 [cal/(mol K)]      155.933 [J/(mol K)]       0.05939180 [mEh/K] (mol. weight = 43.9721 [u], P = 101325.00 [Pa])
    Rotational S           12.949 [cal/(mol K)]       54.177 [J/(mol K)]       0.02063493 [mEh/K] (symmetry no. = 1)
    Vibrational S           0.021 [cal/(mol K)]        0.086 [J/(mol K)]       0.00003284 [mEh/K]
  Total S                  50.238 [cal/(mol K)]      210.196 [J/(mol K)]       0.08005956 [mEh/K]
  Correction S              0.000 [cal/(mol K)]        0.000 [J/(mol K)]       0.00000000 [mEh/K]

  Constant volume heat capacity, Cv
    Electronic Cv           0.000 [cal/(mol K)]        0.000 [J/(mol K)]       0.00000000 [mEh/K]
    Translational Cv        2.981 [cal/(mol K)]       12.472 [J/(mol K)]       0.00475022 [mEh/K]
    Rotational Cv           1.987 [cal/(mol K)]        8.314 [J/(mol K)]       0.00316681 [mEh/K]
    Vibrational Cv          0.118 [cal/(mol K)]        0.495 [J/(mol K)]       0.00018843 [mEh/K]
  Total Cv                  5.086 [cal/(mol K)]       21.281 [J/(mol K)]       0.00810545 [mEh/K]
  Correction Cv             0.000 [cal/(mol K)]        0.000 [J/(mol K)]       0.00000000 [mEh/K]

  Constant pressure heat capacity, Cp
    Electronic Cp           0.000 [cal/(mol K)]        0.000 [J/(mol K)]       0.00000000 [mEh/K]
    Translational Cp        4.968 [cal/(mol K)]       20.786 [J/(mol K)]       0.00791703 [mEh/K]
    Rotational Cp           1.987 [cal/(mol K)]        8.314 [J/(mol K)]       0.00316681 [mEh/K]
    Vibrational Cp          0.118 [cal/(mol K)]        0.495 [J/(mol K)]       0.00018843 [mEh/K]
  Total Cp                  7.073 [cal/(mol K)]       29.595 [J/(mol K)]       0.01127226 [mEh/K]
  Correction Cp             0.000 [cal/(mol K)]        0.000 [J/(mol K)]       0.00000000 [mEh/K]

  ==> Thermochemistry Energy Analysis <==

  Raw electronic energy, E0
  Total E0, Electronic energy at well bottom at 0 [K]                 -436.17329257 [Eh]

  Zero-point energy, ZPE_vib = Sum_i nu_i / 2
    Electronic ZPE          0.000 [kcal/mol]        0.000 [kJ/mol]       0.00000000 [Eh]
    Translational ZPE       0.000 [kcal/mol]        0.000 [kJ/mol]       0.00000000 [Eh]
    Rotational ZPE          0.000 [kcal/mol]        0.000 [kJ/mol]       0.00000000 [Eh]
    Vibrational ZPE         1.955 [kcal/mol]        8.178 [kJ/mol]       0.00311489 [Eh]         683.640 [cm^-1]
  Correction ZPE            1.955 [kcal/mol]        8.178 [kJ/mol]       0.00311489 [Eh]         683.640 [cm^-1]
  Total ZPE, Electronic energy at 0 [K]                               -436.17017767 [Eh]

  Thermal Energy, E (includes ZPE)
    Electronic E            0.000 [kcal/mol]        0.000 [kJ/mol]       0.00000000 [Eh]
    Translational E         0.889 [kcal/mol]        3.718 [kJ/mol]       0.00141628 [Eh]
    Rotational E            0.592 [kcal/mol]        2.479 [kJ/mol]       0.00094418 [Eh]
    Vibrational E           1.960 [kcal/mol]        8.200 [kJ/mol]       0.00312339 [Eh]
  Correction E              3.441 [kcal/mol]       14.398 [kJ/mol]       0.00548386 [Eh]
  Total E, Electronic energy at  298.15 [K]                           -436.16780871 [Eh]

  Enthalpy, H_trans = E_trans + k_B * T
    Electronic H            0.000 [kcal/mol]        0.000 [kJ/mol]       0.00000000 [Eh]
    Translational H         1.481 [kcal/mol]        6.197 [kJ/mol]       0.00236046 [Eh]
    Rotational H            0.592 [kcal/mol]        2.479 [kJ/mol]       0.00094418 [Eh]
    Vibrational H           1.960 [kcal/mol]        8.200 [kJ/mol]       0.00312339 [Eh]
  Correction H              4.034 [kcal/mol]       16.877 [kJ/mol]       0.00642804 [Eh]
  Total H, Enthalpy at  298.15 [K]                                    -436.16686453 [Eh]

  Gibbs free energy, G = H - T * S
    Electronic G            0.000 [kcal/mol]        0.000 [kJ/mol]       0.00000000 [Eh]
    Translational G        -9.631 [kcal/mol]      -40.294 [kJ/mol]      -0.01534720 [Eh]
    Rotational G           -3.268 [kcal/mol]      -13.674 [kJ/mol]      -0.00520812 [Eh]
    Vibrational G           1.954 [kcal/mol]        8.175 [kJ/mol]       0.00311360 [Eh]
  Correction G            -10.945 [kcal/mol]      -45.793 [kJ/mol]      -0.01744172 [Eh]
  Total G, Free enthalpy at  298.15 [K]                               -436.19073429 [Eh]

*** Psi4 exiting successfully. Buy a developer a beer!
