                               Psi4 1.3.2 release

  ==> Input File <==

--------------------------------------------------------------------------
memory 144 GB

molecule {
0 1
F 0.0000000000 0.0000000000 0.0000000000
F 0.0000000000 0.0000000000 1.4129000000
}

set dynamic_level 1
set basis cc-pV(Q+d)Z

optimize("wB97X-V")
frequencies("wB97X-V")
--------------------------------------------------------------------------

    Molecular point group: d2h
  Charge       = 0
  Multiplicity = 1
  Basis Set: CC-PV(Q+D)Z
    Blend: CC-PV(Q+D)Z
  Basis Set: (CC-PV(Q+D)Z AUX)
    Blend: CC-PVQZ-JKFIT
  @DF-RKS Final Energy:  -199.53267941554961
    Total Energy =                       -199.5326794155496088
    Molecular point group: d2h
  Basis Set: CC-PV(Q+D)Z
    Blend: CC-PV(Q+D)Z
  Basis Set: (CC-PV(Q+D)Z AUX)
    Blend: CC-PVQZ-JKFIT
  @DF-RKS Final Energy:  -199.53263778424565
    Total Energy =                       -199.5326377842456793
  Basis Set: CC-PV(Q+D)Z
    Blend: CC-PV(Q+D)Z
  Basis Set: (CC-PV(Q+D)Z AUX)
    Blend: CC-PVQZ-JKFIT
  @DF-RKS Final Energy:  -199.53272010141401
    Total Energy =                       -199.5327201014140144
  Basis Set: CC-PV(Q+D)Z
    Blend: CC-PV(Q+D)Z
  Basis Set: (CC-PV(Q+D)Z AUX)
    Blend: CC-PVQZ-JKFIT
  @DF-RKS Final Energy:  -199.53350727949802
    Total Energy =                       -199.5335072794980249
  @DF-RKS Final Energy:  -199.53350276297530
    Total Energy =                       -199.5335027629752460
  @DF-RKS Final Energy:  -199.53351065711459
    Total Energy =                       -199.5335106571145900
  @DF-RKS Final Energy:  -199.53351400714160
    Total Energy =                       -199.5335140071415765
  @DF-RKS Final Energy:  -199.53351384535640
    Total Energy =                       -199.5335138453563957
  @DF-RKS Final Energy:  -199.53351300777217
    Total Energy =                       -199.5335130077721431
  **** Optimization is complete! (in 3 steps) ****
    Final optimized geometry and variables:
  @DF-RKS Final Energy:  -199.53351400714172
    Total Energy =                       -199.5335140071417470
  @DF-RKS Final Energy:  -199.53351384535631
    Total Energy =                       -199.5335138453563104
  Basis Set: CC-PV(Q+D)Z
    Blend: CC-PV(Q+D)Z
  Basis Set: (CC-PV(Q+D)Z AUX)
    Blend: CC-PVQZ-JKFIT
  @DF-RKS Final Energy:  -199.53351300777220
    Total Energy =                       -199.5335130077722283
  Basis Set: CC-PV(Q+D)Z
    Blend: CC-PV(Q+D)Z
  Basis Set: (CC-PV(Q+D)Z AUX)
    Blend: CC-PVQZ-JKFIT
  @DF-RKS Final Energy:  -199.53351400714172
    Total Energy =                       -199.5335140071416902
  Multiplicity = 1
  Basis Set: CC-PV(Q+D)Z
    Blend: CC-PV(Q+D)Z
  Basis Set: (CC-PV(Q+D)Z AUX)
    Blend: CC-PVQZ-JKFIT
  @DF-RKS Final Energy:  -199.53351384535648
    Total Energy =                       -199.5335138453564809
    Molecular point group: d2h

    Geometry (in Angstrom), charge = 0, multiplicity = 1:

       Center              X                  Y                   Z               Mass
    ------------   -----------------  -----------------  -----------------  -----------------
         F            0.000000000000     0.000000000000    -0.689028398872    18.998403162730
         F            0.000000000000     0.000000000000     0.689028398872    18.998403162730

  Charge       = 0
  Multiplicity = 1
  Basis Set: CC-PV(Q+D)Z
    Blend: CC-PV(Q+D)Z
  Basis Set: (CC-PV(Q+D)Z AUX)
    Blend: CC-PVQZ-JKFIT

    Orbital Energies [Eh]
    ---------------------

    Doubly Occupied:

       1Ag   -24.864501     1B1u  -24.864497     2Ag    -1.495446
       2B1u   -1.228471     3Ag    -0.717244     1B3u   -0.665154
       1B2u   -0.665154     1B2g   -0.520451     1B3g   -0.520451

  @DF-RKS Final Energy:  -199.53351300777223

   => Energetics <=

    Nuclear Repulsion Energy =             31.1041998664065815
    One-Electron Energy =                -340.0468514081523494
    Two-Electron Energy =                 124.3616302605012152
    DFT Exchange-Correlation Energy =     -15.0295224753636631
    Empirical Dispersion Energy =           0.0000000000000000
    VV10 Nonlocal Energy =                  0.0770307488359585
    Total Energy =                       -199.5335130077722283

  Dipole Moment: [D]
     X:     0.0000      Y:     0.0000      Z:     0.0000     Total:     0.0000

  Vibration                       6
  Freq [cm^-1]                1107.8458
  Irrep                           Ag
  Reduced mass [u]             18.9984
  Force const [mDyne/A]        13.7381

  ==> Thermochemistry Components <==

  Entropy, S
    Electronic S            0.000 [cal/(mol K)]        0.000 [J/(mol K)]       0.00000000 [mEh/K] (multiplicity = 1)
    Translational S        36.834 [cal/(mol K)]      154.112 [J/(mol K)]       0.05869802 [mEh/K] (mol. weight = 37.9968 [u], P = 101325.00 [Pa])
    Rotational S           11.346 [cal/(mol K)]       47.473 [J/(mol K)]       0.01808139 [mEh/K] (symmetry no. = 2)
    Vibrational S           0.060 [cal/(mol K)]        0.253 [J/(mol K)]       0.00009622 [mEh/K]
  Total S                  48.240 [cal/(mol K)]      201.837 [J/(mol K)]       0.07687563 [mEh/K]
  Correction S              0.000 [cal/(mol K)]        0.000 [J/(mol K)]       0.00000000 [mEh/K]

  Constant volume heat capacity, Cv
    Electronic Cv           0.000 [cal/(mol K)]        0.000 [J/(mol K)]       0.00000000 [mEh/K]
    Translational Cv        2.981 [cal/(mol K)]       12.472 [J/(mol K)]       0.00475022 [mEh/K]
    Rotational Cv           1.987 [cal/(mol K)]        8.314 [J/(mol K)]       0.00316681 [mEh/K]
    Vibrational Cv          0.273 [cal/(mol K)]        1.144 [J/(mol K)]       0.00043557 [mEh/K]
  Total Cv                  5.241 [cal/(mol K)]       21.930 [J/(mol K)]       0.00835260 [mEh/K]
  Correction Cv             0.000 [cal/(mol K)]        0.000 [J/(mol K)]       0.00000000 [mEh/K]

  Constant pressure heat capacity, Cp
    Electronic Cp           0.000 [cal/(mol K)]        0.000 [J/(mol K)]       0.00000000 [mEh/K]
    Translational Cp        4.968 [cal/(mol K)]       20.786 [J/(mol K)]       0.00791703 [mEh/K]
    Rotational Cp           1.987 [cal/(mol K)]        8.314 [J/(mol K)]       0.00316681 [mEh/K]
    Vibrational Cp          0.273 [cal/(mol K)]        1.144 [J/(mol K)]       0.00043557 [mEh/K]
  Total Cp                  7.229 [cal/(mol K)]       30.244 [J/(mol K)]       0.01151941 [mEh/K]
  Correction Cp             0.000 [cal/(mol K)]        0.000 [J/(mol K)]       0.00000000 [mEh/K]

  ==> Thermochemistry Energy Analysis <==

  Raw electronic energy, E0
  Total E0, Electronic energy at well bottom at 0 [K]                 -199.53351401 [Eh]

  Zero-point energy, ZPE_vib = Sum_i nu_i / 2
    Electronic ZPE          0.000 [kcal/mol]        0.000 [kJ/mol]       0.00000000 [Eh]
    Translational ZPE       0.000 [kcal/mol]        0.000 [kJ/mol]       0.00000000 [Eh]
    Rotational ZPE          0.000 [kcal/mol]        0.000 [kJ/mol]       0.00000000 [Eh]
    Vibrational ZPE         1.584 [kcal/mol]        6.626 [kJ/mol]       0.00252386 [Eh]         553.923 [cm^-1]
  Correction ZPE            1.584 [kcal/mol]        6.626 [kJ/mol]       0.00252386 [Eh]         553.923 [cm^-1]
  Total ZPE, Electronic energy at 0 [K]                               -199.53099015 [Eh]

  Thermal Energy, E (includes ZPE)
    Electronic E            0.000 [kcal/mol]        0.000 [kJ/mol]       0.00000000 [Eh]
    Translational E         0.889 [kcal/mol]        3.718 [kJ/mol]       0.00141628 [Eh]
    Rotational E            0.592 [kcal/mol]        2.479 [kJ/mol]       0.00094418 [Eh]
    Vibrational E           1.599 [kcal/mol]        6.690 [kJ/mol]       0.00254803 [Eh]
  Correction E              3.080 [kcal/mol]       12.887 [kJ/mol]       0.00490850 [Eh]
  Total E, Electronic energy at  298.15 [K]                           -199.52860551 [Eh]

  Enthalpy, H_trans = E_trans + k_B * T
    Electronic H            0.000 [kcal/mol]        0.000 [kJ/mol]       0.00000000 [Eh]
    Translational H         1.481 [kcal/mol]        6.197 [kJ/mol]       0.00236046 [Eh]
    Rotational H            0.592 [kcal/mol]        2.479 [kJ/mol]       0.00094418 [Eh]
    Vibrational H           1.599 [kcal/mol]        6.690 [kJ/mol]       0.00254803 [Eh]
  Correction H              3.673 [kcal/mol]       15.366 [kJ/mol]       0.00585268 [Eh]
  Total H, Enthalpy at  298.15 [K]                                    -199.52766133 [Eh]

  Gibbs free energy, G = H - T * S
    Electronic G            0.000 [kcal/mol]        0.000 [kJ/mol]       0.00000000 [Eh]
    Translational G        -9.501 [kcal/mol]      -39.751 [kJ/mol]      -0.01514035 [Eh]
    Rotational G           -2.790 [kcal/mol]      -11.675 [kJ/mol]      -0.00444678 [Eh]
    Vibrational G           1.581 [kcal/mol]        6.615 [kJ/mol]       0.00251935 [Eh]
  Correction G            -10.710 [kcal/mol]      -44.811 [kJ/mol]      -0.01706779 [Eh]
  Total G, Free enthalpy at  298.15 [K]                               -199.55058180 [Eh]

*** Psi4 exiting successfully. Buy a developer a beer!
