                               Psi4 1.3.2 release

  ==> Input File <==

--------------------------------------------------------------------------
memory 144 GB

molecule {
0 1
O 0.0000000000 0.0000000000 0.0000000000
C 0.0000000000 0.0000000000 1.2066000000
H 0.9369544103 0.0000000000 1.7870836544
H -0.9369544103 0.0000000000 1.7870836544
}

set dynamic_level 1
set basis cc-pV(Q+d)Z

optimize("wB97X-V")
frequencies("wB97X-V")
--------------------------------------------------------------------------

    Molecular point group: c2v
  Charge       = 0
  Multiplicity = 1
  Basis Set: CC-PV(Q+D)Z
    Blend: CC-PV(Q+D)Z
  Basis Set: (CC-PV(Q+D)Z AUX)
    Blend: CC-PVQZ-JKFIT
  @DF-RKS Final Energy:  -114.51489262588902
    Total Energy =                       -114.5148926258890327
    Molecular point group: c2v
  Basis Set: CC-PV(Q+D)Z
    Blend: CC-PV(Q+D)Z
  Basis Set: (CC-PV(Q+D)Z AUX)
    Blend: CC-PVQZ-JKFIT
  @DF-RKS Final Energy:  -114.51486745232395
    Total Energy =                       -114.5148674523239549
  Basis Set: CC-PV(Q+D)Z
    Blend: CC-PV(Q+D)Z
  Basis Set: (CC-PV(Q+D)Z AUX)
    Blend: CC-PVQZ-JKFIT
  @DF-RKS Final Energy:  -114.51491489534141
    Total Energy =                       -114.5149148953413913
  Basis Set: CC-PV(Q+D)Z
    Blend: CC-PV(Q+D)Z
  Basis Set: (CC-PV(Q+D)Z AUX)
    Blend: CC-PVQZ-JKFIT
  @DF-RKS Final Energy:  -114.51490492042507
    Total Energy =                       -114.5149049204250531
  @DF-RKS Final Energy:  -114.51487631385029
    Total Energy =                       -114.5148763138502943
  @DF-RKS Final Energy:  -114.51487519239416
    Total Energy =                       -114.5148751923941717
  @DF-RKS Final Energy:  -114.51490336529042
    Total Energy =                       -114.5149033652904222
  @DF-RKS Final Energy:  -114.51500627932985
    Total Energy =                       -114.5150062793298531
  @DF-RKS Final Energy:  -114.51500108322543
    Total Energy =                       -114.5150010832254281
  @DF-RKS Final Energy:  -114.51500844501651
    Total Energy =                       -114.5150084450165195
  @DF-RKS Final Energy:  -114.51500989476635
    Total Energy =                       -114.5150098947663508
  @DF-RKS Final Energy:  -114.51499867536808
    Total Energy =                       -114.5149986753680764
  @DF-RKS Final Energy:  -114.51500122110654
    Total Energy =                       -114.5150012211065587
  @DF-RKS Final Energy:  -114.51500476448459
    Total Energy =                       -114.5150047644845870
  @DF-RKS Final Energy:  -114.51501198183468
    Total Energy =                       -114.5150119818346894
  @DF-RKS Final Energy:  -114.51501051800982
    Total Energy =                       -114.5150105180098308
  @DF-RKS Final Energy:  -114.51501038971614
    Total Energy =                       -114.5150103897161387
  @DF-RKS Final Energy:  -114.51501087175677
    Total Energy =                       -114.5150108717567718
  @DF-RKS Final Energy:  -114.51500910431828
    Total Energy =                       -114.5150091043182812
  @DF-RKS Final Energy:  -114.51500898086488
    Total Energy =                       -114.5150089808648772
  **** Optimization is complete! (in 4 steps) ****
    Final optimized geometry and variables:
  @DF-RKS Final Energy:  -114.51500894991140
    Total Energy =                       -114.5150089499114188
  @DF-RKS Final Energy:  -114.51500882881898
    Total Energy =                       -114.5150088288189778
  @DF-RKS Final Energy:  -114.51501215568987
    Total Energy =                       -114.5150121556898739
  @DF-RKS Final Energy:  -114.51501062952403
    Total Energy =                       -114.5150106295240278
  @DF-RKS Final Energy:  -114.51501062559487
    Total Energy =                       -114.5150106255948685
  @DF-RKS Final Energy:  -114.51501024217910
    Total Energy =                       -114.5150102421791161
  @DF-RKS Final Energy:  -114.51501007958639
    Total Energy =                       -114.5150100795863750
  @DF-RKS Final Energy:  -114.51500894991146
    Total Energy =                       -114.5150089499114614
  @DF-RKS Final Energy:  -114.51500882881916
    Total Energy =                       -114.5150088288191625
  @DF-RKS Final Energy:  -114.51500887151317
    Total Energy =                       -114.5150088715131602
  @DF-RKS Final Energy:  -114.51500903646358
    Total Energy =                       -114.5150090364635957
  @DF-RKS Final Energy:  -114.51500752455331
    Total Energy =                       -114.5150075245532975
  @DF-RKS Final Energy:  -114.51500764766202
    Total Energy =                       -114.5150076476620029
  @DF-RKS Final Energy:  -114.51500928629176
    Total Energy =                       -114.5150092862917575
  @DF-RKS Final Energy:  -114.51500958434843
    Total Energy =                       -114.5150095843484337
  @DF-RKS Final Energy:  -114.51501138853311
    Total Energy =                       -114.5150113885330967
  Basis Set: CC-PV(Q+D)Z
    Blend: CC-PV(Q+D)Z
  Basis Set: (CC-PV(Q+D)Z AUX)
    Blend: CC-PVQZ-JKFIT
  @DF-RKS Final Energy:  -114.51500792862979
    Total Energy =                       -114.5150079286297853
  Basis Set: CC-PV(Q+D)Z
    Blend: CC-PV(Q+D)Z
  Basis Set: (CC-PV(Q+D)Z AUX)
    Blend: CC-PVQZ-JKFIT
  @DF-RKS Final Energy:  -114.51500720268817
    Total Energy =                       -114.5150072026881674
  Multiplicity = 1
  Basis Set: CC-PV(Q+D)Z
    Blend: CC-PV(Q+D)Z
  Basis Set: (CC-PV(Q+D)Z AUX)
    Blend: CC-PVQZ-JKFIT
  @DF-RKS Final Energy:  -114.51500720256833
    Total Energy =                       -114.5150072025683272
    Molecular point group: cs

    Geometry (in Angstrom), charge = 0, multiplicity = 1:

       Center              X                  Y                   Z               Mass
    ------------   -----------------  -----------------  -----------------  -----------------
         O            0.000000000000    -0.000096711377    -0.598930255149    15.994914619570
         C            0.000000000000     0.000393319626     0.599485520352    12.000000000000
         H            0.940059159402    -0.001574154836     1.183743196317     1.007825032230
         H           -0.940059159402    -0.001574154836     1.183743196317     1.007825032230

  Charge       = 0
  Multiplicity = 1
  Basis Set: CC-PV(Q+D)Z
    Blend: CC-PV(Q+D)Z
  Basis Set: (CC-PV(Q+D)Z AUX)
    Blend: CC-PVQZ-JKFIT

    Orbital Energies [Eh]
    ---------------------

    Doubly Occupied:

       1Ap   -19.229348     2Ap   -10.369270     3Ap    -1.197051
       4Ap    -0.761241     1App   -0.616719     5Ap    -0.568282
       6Ap    -0.515190     2App   -0.378757

  @DF-RKS Final Energy:  -114.51501145914312

   => Energetics <=

    Nuclear Repulsion Energy =             31.4149206709175637
    One-Electron Energy =                -217.7235254222125036
    Two-Electron Energy =                  82.0168025296514998
    DFT Exchange-Correlation Energy =     -10.2897230104084656
    Empirical Dispersion Energy =           0.0000000000000000
    VV10 Nonlocal Energy =                  0.0665137729087894
    Total Energy =                       -114.5150114591431247

  Dipole Moment: [D]
     X:     0.0000      Y:    -0.0009      Z:     2.4037     Total:     2.4037

  Vibration                       7                   8                   9
  Freq [cm^-1]                1213.4570           1273.3761           1536.5306
  Irrep                           B2                  B1                  A1
  Reduced mass [u]              1.3673              1.3444              1.0964
  Force const [mDyne/A]         1.1862              1.2844              1.5252

  Vibration                       10                  11                  12
  Freq [cm^-1]                1851.2840           2926.4498           2989.3362
  Irrep                           A1                  A1                  B1
  Reduced mass [u]              7.8278              1.0447              1.1205
  Force const [mDyne/A]        15.8065              5.2712              5.8997

  ==> Thermochemistry Components <==

  Entropy, S
    Electronic S            0.000 [cal/(mol K)]        0.000 [J/(mol K)]       0.00000000 [mEh/K] (multiplicity = 1)
    Translational S        36.130 [cal/(mol K)]      151.169 [J/(mol K)]       0.05757719 [mEh/K] (mol. weight = 30.0106 [u], P = 101325.00 [Pa])
    Rotational S           16.000 [cal/(mol K)]       66.943 [J/(mol K)]       0.02549735 [mEh/K] (symmetry no. = 2)
    Vibrational S           0.082 [cal/(mol K)]        0.345 [J/(mol K)]       0.00013122 [mEh/K]
  Total S                  52.212 [cal/(mol K)]      218.457 [J/(mol K)]       0.08320576 [mEh/K]
  Correction S              0.000 [cal/(mol K)]        0.000 [J/(mol K)]       0.00000000 [mEh/K]

  Constant volume heat capacity, Cv
    Electronic Cv           0.000 [cal/(mol K)]        0.000 [J/(mol K)]       0.00000000 [mEh/K]
    Translational Cv        2.981 [cal/(mol K)]       12.472 [J/(mol K)]       0.00475022 [mEh/K]
    Rotational Cv           2.981 [cal/(mol K)]       12.472 [J/(mol K)]       0.00475022 [mEh/K]
    Vibrational Cv          0.445 [cal/(mol K)]        1.863 [J/(mol K)]       0.00070939 [mEh/K]
  Total Cv                  6.407 [cal/(mol K)]       26.806 [J/(mol K)]       0.01020982 [mEh/K]
  Correction Cv             0.000 [cal/(mol K)]        0.000 [J/(mol K)]       0.00000000 [mEh/K]

  Constant pressure heat capacity, Cp
    Electronic Cp           0.000 [cal/(mol K)]        0.000 [J/(mol K)]       0.00000000 [mEh/K]
    Translational Cp        4.968 [cal/(mol K)]       20.786 [J/(mol K)]       0.00791703 [mEh/K]
    Rotational Cp           2.981 [cal/(mol K)]       12.472 [J/(mol K)]       0.00475022 [mEh/K]
    Vibrational Cp          0.445 [cal/(mol K)]        1.863 [J/(mol K)]       0.00070939 [mEh/K]
  Total Cp                  8.394 [cal/(mol K)]       35.120 [J/(mol K)]       0.01337663 [mEh/K]
  Correction Cp             0.000 [cal/(mol K)]        0.000 [J/(mol K)]       0.00000000 [mEh/K]

  ==> Thermochemistry Energy Analysis <==

  Raw electronic energy, E0
  Total E0, Electronic energy at well bottom at 0 [K]                 -114.51501216 [Eh]

  Zero-point energy, ZPE_vib = Sum_i nu_i / 2
    Electronic ZPE          0.000 [kcal/mol]        0.000 [kJ/mol]       0.00000000 [Eh]
    Translational ZPE       0.000 [kcal/mol]        0.000 [kJ/mol]       0.00000000 [Eh]
    Rotational ZPE          0.000 [kcal/mol]        0.000 [kJ/mol]       0.00000000 [Eh]
    Vibrational ZPE        16.855 [kcal/mol]       70.522 [kJ/mol]       0.02686058 [Eh]        5895.217 [cm^-1]
  Correction ZPE           16.855 [kcal/mol]       70.522 [kJ/mol]       0.02686058 [Eh]        5895.217 [cm^-1]
  Total ZPE, Electronic energy at 0 [K]                               -114.48815157 [Eh]

  Thermal Energy, E (includes ZPE)
    Electronic E            0.000 [kcal/mol]        0.000 [kJ/mol]       0.00000000 [Eh]
    Translational E         0.889 [kcal/mol]        3.718 [kJ/mol]       0.00141628 [Eh]
    Rotational E            0.889 [kcal/mol]        3.718 [kJ/mol]       0.00141628 [Eh]
    Vibrational E          16.876 [kcal/mol]       70.611 [kJ/mol]       0.02689428 [Eh]
  Correction E             18.654 [kcal/mol]       78.048 [kJ/mol]       0.02972683 [Eh]
  Total E, Electronic energy at  298.15 [K]                           -114.48528532 [Eh]

  Enthalpy, H_trans = E_trans + k_B * T
    Electronic H            0.000 [kcal/mol]        0.000 [kJ/mol]       0.00000000 [Eh]
    Translational H         1.481 [kcal/mol]        6.197 [kJ/mol]       0.00236046 [Eh]
    Rotational H            0.889 [kcal/mol]        3.718 [kJ/mol]       0.00141628 [Eh]
    Vibrational H          16.876 [kcal/mol]       70.611 [kJ/mol]       0.02689428 [Eh]
  Correction H             19.246 [kcal/mol]       80.527 [kJ/mol]       0.03067102 [Eh]
  Total H, Enthalpy at  298.15 [K]                                    -114.48434114 [Eh]

  Gibbs free energy, G = H - T * S
    Electronic G            0.000 [kcal/mol]        0.000 [kJ/mol]       0.00000000 [Eh]
    Translational G        -9.291 [kcal/mol]      -38.874 [kJ/mol]      -0.01480618 [Eh]
    Rotational G           -3.882 [kcal/mol]      -16.241 [kJ/mol]      -0.00618576 [Eh]
    Vibrational G          16.852 [kcal/mol]       70.508 [kJ/mol]       0.02685516 [Eh]
  Correction G              3.679 [kcal/mol]       15.394 [kJ/mol]       0.00586322 [Eh]
  Total G, Free enthalpy at  298.15 [K]                               -114.50914894 [Eh]

*** Psi4 exiting successfully. Buy a developer a beer!
