                               Psi4 1.3.2 release

  ==> Input File <==

--------------------------------------------------------------------------
memory 144 GB

molecule {
0 1
S 0.0000000000 0.0000000000 0.0000000000
C 0.0000000000 0.0000000000 1.2066000000
H 0.9369544103 0.0000000000 1.7870836544
H -0.9369544103 0.0000000000 1.7870836544
}

set dynamic_level 1
set basis cc-pV(Q+d)Z

optimize("wB97X-V")
frequencies("wB97X-V")
--------------------------------------------------------------------------

    Molecular point group: c2v
  Charge       = 0
  Multiplicity = 1
  Basis Set: CC-PV(Q+D)Z
    Blend: CC-PV(Q+D)Z
  Basis Set: (CC-PV(Q+D)Z AUX)
    Blend: CC-PVQZ-JKFIT
  @DF-RKS Final Energy:  -437.15155676919426
    Total Energy =                       -437.1515567691942579
    Molecular point group: c2v
  Basis Set: CC-PV(Q+D)Z
    Blend: CC-PV(Q+D)Z
  Basis Set: (CC-PV(Q+D)Z AUX)
    Blend: CC-PVQZ-JKFIT
  @DF-RKS Final Energy:  -437.15321739715796
    Total Energy =                       -437.1532173971579596
  Basis Set: CC-PV(Q+D)Z
    Blend: CC-PV(Q+D)Z
  Basis Set: (CC-PV(Q+D)Z AUX)
    Blend: CC-PVQZ-JKFIT
  @DF-RKS Final Energy:  -437.14988832937013
    Total Energy =                       -437.1498883293701283
  Basis Set: CC-PV(Q+D)Z
    Blend: CC-PV(Q+D)Z
  Basis Set: (CC-PV(Q+D)Z AUX)
    Blend: CC-PVQZ-JKFIT
  @DF-RKS Final Energy:  -437.15115451623706
    Total Energy =                       -437.1511545162370567
  @DF-RKS Final Energy:  -437.15195426750978
    Total Energy =                       -437.1519542675097227
  @DF-RKS Final Energy:  -437.15159914042107
    Total Energy =                       -437.1515991404210695
  @DF-RKS Final Energy:  -437.15150827877420
    Total Energy =                       -437.1515082787742585
  @DF-RKS Final Energy:  -437.33202366075244
    Total Energy =                       -437.3320236607524407
  @DF-RKS Final Energy:  -437.33277545257494
    Total Energy =                       -437.3327754525748787
  @DF-RKS Final Energy:  -437.33126758139241
    Total Energy =                       -437.3312675813923533
  @DF-RKS Final Energy:  -437.33179512170204
    Total Energy =                       -437.3317951217020436
  @DF-RKS Final Energy:  -437.33224776355280
    Total Energy =                       -437.3322477635527434
  @DF-RKS Final Energy:  -437.33206313552699
    Total Energy =                       -437.3320631355269938
  @DF-RKS Final Energy:  -437.33197802782388
    Total Energy =                       -437.3319780278238227
  @DF-RKS Final Energy:  -437.39709394083565
    Total Energy =                       -437.3970939408356458
  @DF-RKS Final Energy:  -437.39742911461923
    Total Energy =                       -437.3974291146191717
  @DF-RKS Final Energy:  -437.39675613208112
    Total Energy =                       -437.3967561320811228
  @DF-RKS Final Energy:  -437.39697417273544
    Total Energy =                       -437.3969741727354972
  @DF-RKS Final Energy:  -437.39720934347065
    Total Energy =                       -437.3972093434706494
  @DF-RKS Final Energy:  -437.39710092739341
    Total Energy =                       -437.3971009273934101
  **** Optimization is complete! (in 9 steps) ****
    Final optimized geometry and variables:
  @DF-RKS Final Energy:  -437.42419282947833
    Total Energy =                       -437.4241928294783293
  @DF-RKS Final Energy:  -437.42419281402590
    Total Energy =                       -437.4241928140259006
  @DF-RKS Final Energy:  -437.42419636764794
    Total Energy =                       -437.4241963676479941
  @DF-RKS Final Energy:  -437.42419576958878
    Total Energy =                       -437.4241957695887209
  @DF-RKS Final Energy:  -437.42419572052171
    Total Energy =                       -437.4241957205217091
  @DF-RKS Final Energy:  -437.42419435289219
    Total Energy =                       -437.4241943528921865
  @DF-RKS Final Energy:  -437.42419428403150
    Total Energy =                       -437.4241942840315005
  @DF-RKS Final Energy:  -437.42419282947935
    Total Energy =                       -437.4241928294793524
  @DF-RKS Final Energy:  -437.42419281402539
    Total Energy =                       -437.4241928140253890
  @DF-RKS Final Energy:  -437.42419380315533
    Total Energy =                       -437.4241938031553900
  @DF-RKS Final Energy:  -437.42419392006815
    Total Energy =                       -437.4241939200681486
  @DF-RKS Final Energy:  -437.42419214383813
    Total Energy =                       -437.4241921438381269
  @DF-RKS Final Energy:  -437.42419220751879
    Total Energy =                       -437.4241922075187858
  @DF-RKS Final Energy:  -437.42419384305470
    Total Energy =                       -437.4241938430548089
  @DF-RKS Final Energy:  -437.42419394448399
    Total Energy =                       -437.4241939444839886
  @DF-RKS Final Energy:  -437.42419588261038
    Total Energy =                       -437.4241958826103769
  Basis Set: CC-PV(Q+D)Z
    Blend: CC-PV(Q+D)Z
  Basis Set: (CC-PV(Q+D)Z AUX)
    Blend: CC-PVQZ-JKFIT
  @DF-RKS Final Energy:  -437.42419158449741
    Total Energy =                       -437.4241915844974073
  Basis Set: CC-PV(Q+D)Z
    Blend: CC-PV(Q+D)Z
  Basis Set: (CC-PV(Q+D)Z AUX)
    Blend: CC-PVQZ-JKFIT
  @DF-RKS Final Energy:  -437.42419113430418
    Total Energy =                       -437.4241911343041807
  Multiplicity = 1
  Basis Set: CC-PV(Q+D)Z
    Blend: CC-PV(Q+D)Z
  Basis Set: (CC-PV(Q+D)Z AUX)
    Blend: CC-PVQZ-JKFIT
  @DF-RKS Final Energy:  -437.42419113424592
    Total Energy =                       -437.4241911342459730
    Molecular point group: cs

    Geometry (in Angstrom), charge = 0, multiplicity = 1:

       Center              X                  Y                   Z               Mass
    ------------   -----------------  -----------------  -----------------  -----------------
         S            0.000000000000    -0.000037028985    -0.511916565187    31.972071174400
         C            0.000000000000     0.000371133507     1.084632641877    12.000000000000
         H            0.923218961907    -0.001622160905     1.662709819572     1.007825032230
         H           -0.923218961907    -0.001622160905     1.662709819572     1.007825032230

  Charge       = 0
  Multiplicity = 1
  Basis Set: CC-PV(Q+D)Z
    Blend: CC-PV(Q+D)Z
  Basis Set: (CC-PV(Q+D)Z AUX)
    Blend: CC-PVQZ-JKFIT

    Orbital Energies [Eh]
    ---------------------

    Doubly Occupied:

       1Ap   -88.889529     2Ap   -10.343960     3Ap    -8.046181
       4Ap    -6.003699     5Ap    -6.000743     1App   -5.993027
       6Ap    -0.935426     7Ap    -0.723910     2App   -0.581042
       8Ap    -0.503626     9Ap    -0.424041     3App   -0.333982

  @DF-RKS Final Energy:  -437.42419584330446

   => Energetics <=

    Nuclear Repulsion Energy =             45.1032930595969219
    One-Electron Energy =                -691.5652922781532652
    Two-Electron Energy =                 232.4488520644574123
    DFT Exchange-Correlation Energy =     -23.5103057234219577
    Empirical Dispersion Energy =           0.0000000000000000
    VV10 Nonlocal Energy =                  0.0992570342164444
    Total Energy =                       -437.4241958433044033

  Dipole Moment: [D]
     X:     0.0000      Y:    -0.0026      Z:     1.7887     Total:     1.7887

  Vibration                       7                   8                   9
  Freq [cm^-1]                1012.5242           1052.8275           1138.2265
  Irrep                           B1                  B2                  A1
  Reduced mass [u]              1.2084              1.2960              4.1915
  Force const [mDyne/A]         0.7299              0.8464              3.1995

  Vibration                       10                  11                  12
  Freq [cm^-1]                1508.0287           3094.2298           3179.8710
  Irrep                           A1                  A1                  B1
  Reduced mass [u]              1.2158              1.0515              1.1193
  Force const [mDyne/A]         1.6291              5.9314              6.6683

  ==> Thermochemistry Components <==

  Entropy, S
    Electronic S            0.000 [cal/(mol K)]        0.000 [J/(mol K)]       0.00000000 [mEh/K] (multiplicity = 1)
    Translational S        37.403 [cal/(mol K)]      156.492 [J/(mol K)]       0.05960470 [mEh/K] (mol. weight = 45.9877 [u], P = 101325.00 [Pa])
    Rotational S           17.443 [cal/(mol K)]       72.981 [J/(mol K)]       0.02779712 [mEh/K] (symmetry no. = 2)
    Vibrational S           0.229 [cal/(mol K)]        0.959 [J/(mol K)]       0.00036523 [mEh/K]
  Total S                  55.075 [cal/(mol K)]      230.432 [J/(mol K)]       0.08776705 [mEh/K]
  Correction S              0.000 [cal/(mol K)]        0.000 [J/(mol K)]       0.00000000 [mEh/K]

  Constant volume heat capacity, Cv
    Electronic Cv           0.000 [cal/(mol K)]        0.000 [J/(mol K)]       0.00000000 [mEh/K]
    Translational Cv        2.981 [cal/(mol K)]       12.472 [J/(mol K)]       0.00475022 [mEh/K]
    Rotational Cv           2.981 [cal/(mol K)]       12.472 [J/(mol K)]       0.00475022 [mEh/K]
    Vibrational Cv          1.008 [cal/(mol K)]        4.219 [J/(mol K)]       0.00160712 [mEh/K]
  Total Cv                  6.970 [cal/(mol K)]       29.163 [J/(mol K)]       0.01110755 [mEh/K]
  Correction Cv             0.000 [cal/(mol K)]        0.000 [J/(mol K)]       0.00000000 [mEh/K]

  Constant pressure heat capacity, Cp
    Electronic Cp           0.000 [cal/(mol K)]        0.000 [J/(mol K)]       0.00000000 [mEh/K]
    Translational Cp        4.968 [cal/(mol K)]       20.786 [J/(mol K)]       0.00791703 [mEh/K]
    Rotational Cp           2.981 [cal/(mol K)]       12.472 [J/(mol K)]       0.00475022 [mEh/K]
    Vibrational Cp          1.008 [cal/(mol K)]        4.219 [J/(mol K)]       0.00160712 [mEh/K]
  Total Cp                  8.957 [cal/(mol K)]       37.477 [J/(mol K)]       0.01427436 [mEh/K]
  Correction Cp             0.000 [cal/(mol K)]        0.000 [J/(mol K)]       0.00000000 [mEh/K]

  ==> Thermochemistry Energy Analysis <==

  Raw electronic energy, E0
  Total E0, Electronic energy at well bottom at 0 [K]                 -437.42419637 [Eh]

  Zero-point energy, ZPE_vib = Sum_i nu_i / 2
    Electronic ZPE          0.000 [kcal/mol]        0.000 [kJ/mol]       0.00000000 [Eh]
    Translational ZPE       0.000 [kcal/mol]        0.000 [kJ/mol]       0.00000000 [Eh]
    Rotational ZPE          0.000 [kcal/mol]        0.000 [kJ/mol]       0.00000000 [Eh]
    Vibrational ZPE        15.705 [kcal/mol]       65.709 [kJ/mol]       0.02502728 [Eh]        5492.854 [cm^-1]
  Correction ZPE           15.705 [kcal/mol]       65.709 [kJ/mol]       0.02502728 [Eh]        5492.854 [cm^-1]
  Total ZPE, Electronic energy at 0 [K]                               -437.39916908 [Eh]

  Thermal Energy, E (includes ZPE)
    Electronic E            0.000 [kcal/mol]        0.000 [kJ/mol]       0.00000000 [Eh]
    Translational E         0.889 [kcal/mol]        3.718 [kJ/mol]       0.00141628 [Eh]
    Rotational E            0.889 [kcal/mol]        3.718 [kJ/mol]       0.00141628 [Eh]
    Vibrational E          15.762 [kcal/mol]       65.949 [kJ/mol]       0.02511859 [Eh]
  Correction E             17.540 [kcal/mol]       73.386 [kJ/mol]       0.02795114 [Eh]
  Total E, Electronic energy at  298.15 [K]                           -437.39624523 [Eh]

  Enthalpy, H_trans = E_trans + k_B * T
    Electronic H            0.000 [kcal/mol]        0.000 [kJ/mol]       0.00000000 [Eh]
    Translational H         1.481 [kcal/mol]        6.197 [kJ/mol]       0.00236046 [Eh]
    Rotational H            0.889 [kcal/mol]        3.718 [kJ/mol]       0.00141628 [Eh]
    Vibrational H          15.762 [kcal/mol]       65.949 [kJ/mol]       0.02511859 [Eh]
  Correction H             18.132 [kcal/mol]       75.865 [kJ/mol]       0.02889532 [Eh]
  Total H, Enthalpy at  298.15 [K]                                    -437.39530104 [Eh]

  Gibbs free energy, G = H - T * S
    Electronic G            0.000 [kcal/mol]        0.000 [kJ/mol]       0.00000000 [Eh]
    Translational G        -9.670 [kcal/mol]      -40.461 [kJ/mol]      -0.01541068 [Eh]
    Rotational G           -4.312 [kcal/mol]      -18.041 [kJ/mol]      -0.00687143 [Eh]
    Vibrational G          15.694 [kcal/mol]       65.663 [kJ/mol]       0.02500969 [Eh]
  Correction G              1.712 [kcal/mol]        7.161 [kJ/mol]       0.00272758 [Eh]
  Total G, Free enthalpy at  298.15 [K]                               -437.42146879 [Eh]

*** Psi4 exiting successfully. Buy a developer a beer!
