                               Psi4 1.3.2 release

  ==> Input File <==

--------------------------------------------------------------------------
memory 144 GB

molecule {
0 1
O 0.0000000000 0.0000000000 0.0000000000
H 0.0000000000 0.0000000000 0.9579000000
H 0.9289588892 0.0000000000 -0.2336831018
}

set dynamic_level 1
set basis cc-pV(Q+d)Z

optimize("wB97X-V")
frequencies("wB97X-V")
--------------------------------------------------------------------------

    Molecular point group: c2v
  Charge       = 0
  Multiplicity = 1
  Basis Set: CC-PV(Q+D)Z
    Blend: CC-PV(Q+D)Z
  Basis Set: (CC-PV(Q+D)Z AUX)
    Blend: CC-PVQZ-JKFIT
  @DF-RKS Final Energy:   -76.43711917914072
    Total Energy =                        -76.4371191791407085
    Molecular point group: c2v
  Basis Set: CC-PV(Q+D)Z
    Blend: CC-PV(Q+D)Z
  Basis Set: (CC-PV(Q+D)Z AUX)
    Blend: CC-PVQZ-JKFIT
  @DF-RKS Final Energy:   -76.43711658939647
    Total Energy =                        -76.4371165893964530
  Basis Set: CC-PV(Q+D)Z
    Blend: CC-PV(Q+D)Z
  Basis Set: (CC-PV(Q+D)Z AUX)
    Blend: CC-PVQZ-JKFIT
  @DF-RKS Final Energy:   -76.43711521475537
    Total Energy =                        -76.4371152147553516
  Basis Set: CC-PV(Q+D)Z
    Blend: CC-PV(Q+D)Z
  Basis Set: (CC-PV(Q+D)Z AUX)
    Blend: CC-PVQZ-JKFIT
  @DF-RKS Final Energy:   -76.43709991325728
    Total Energy =                        -76.4370999132572848
  @DF-RKS Final Energy:   -76.43712821942533
    Total Energy =                        -76.4371282194253183
  @DF-RKS Final Energy:   -76.43713547591170
    Total Energy =                        -76.4371354759117168
  @DF-RKS Final Energy:   -76.43713120505080
    Total Energy =                        -76.4371312050508180
  @DF-RKS Final Energy:   -76.43713331063671
    Total Energy =                        -76.4371333106367103
  @DF-RKS Final Energy:   -76.43713286509679
    Total Energy =                        -76.4371328650967996
  @DF-RKS Final Energy:   -76.43712793070870
    Total Energy =                        -76.4371279307086837
  @DF-RKS Final Energy:   -76.43713578812802
    Total Energy =                        -76.4371357881280318
  @DF-RKS Final Energy:   -76.43713243125909
    Total Energy =                        -76.4371324312590730
  @DF-RKS Final Energy:   -76.43713269437916
    Total Energy =                        -76.4371326943791445
  @DF-RKS Final Energy:   -76.43713081119027
    Total Energy =                        -76.4371308111902721
  @DF-RKS Final Energy:   -76.43713059282906
    Total Energy =                        -76.4371305928290639
  **** Optimization is complete! (in 3 steps) ****
    Final optimized geometry and variables:
  @DF-RKS Final Energy:   -76.43713578812755
    Total Energy =                        -76.4371357881275344
  @DF-RKS Final Energy:   -76.43713243125879
    Total Energy =                        -76.4371324312588030
  @DF-RKS Final Energy:   -76.43713269437872
    Total Energy =                        -76.4371326943787039
  @DF-RKS Final Energy:   -76.43713081119047
    Total Energy =                        -76.4371308111904710
  @DF-RKS Final Energy:   -76.43713059282939
    Total Energy =                        -76.4371305928294049
  @DF-RKS Final Energy:   -76.43713578812783
    Total Energy =                        -76.4371357881278470
  @DF-RKS Final Energy:   -76.43713243125912
    Total Energy =                        -76.4371324312591156
  @DF-RKS Final Energy:   -76.43713269437886
    Total Energy =                        -76.4371326943788603
  @DF-RKS Final Energy:   -76.43713081119090
    Total Energy =                        -76.4371308111908832
  Basis Set: CC-PV(Q+D)Z
    Blend: CC-PV(Q+D)Z
  Basis Set: (CC-PV(Q+D)Z AUX)
    Blend: CC-PVQZ-JKFIT
  @DF-RKS Final Energy:   -76.43713059282983
    Total Energy =                        -76.4371305928298312
  Basis Set: CC-PV(Q+D)Z
    Blend: CC-PV(Q+D)Z
  Basis Set: (CC-PV(Q+D)Z AUX)
    Blend: CC-PVQZ-JKFIT
  @DF-RKS Final Energy:   -76.43713294882610
    Total Energy =                        -76.4371329488261040
  Multiplicity = 1
  Basis Set: CC-PV(Q+D)Z
    Blend: CC-PV(Q+D)Z
  Basis Set: (CC-PV(Q+D)Z AUX)
    Blend: CC-PVQZ-JKFIT
  @DF-RKS Final Energy:   -76.43713292459995
    Total Energy =                        -76.4371329245999505
    Molecular point group: cs

    Geometry (in Angstrom), charge = 0, multiplicity = 1:

       Center              X                  Y                   Z               Mass
    ------------   -----------------  -----------------  -----------------  -----------------
         O            0.000000000000    -0.000179140730    -0.065482499664    15.994914619570
         H            0.000000000000     0.761432190300     0.520721801578     1.007825032230
         H            0.000000000000    -0.758589096922     0.518532987408     1.007825032230

  Charge       = 0
  Multiplicity = 1
  Basis Set: CC-PV(Q+D)Z
    Blend: CC-PV(Q+D)Z
  Basis Set: (CC-PV(Q+D)Z AUX)
    Blend: CC-PVQZ-JKFIT

    Orbital Energies [Eh]
    ---------------------

    Doubly Occupied:

       1Ap   -19.208883     2Ap    -1.139451     3Ap    -0.641960
       4Ap    -0.499917     1App   -0.424355

  @DF-RKS Final Energy:   -76.43712837562138

   => Energetics <=

    Nuclear Repulsion Energy =              9.1756046987504813
    One-Electron Energy =                -123.0455952965687487
    Two-Electron Energy =                  43.9293501629040648
    DFT Exchange-Correlation Energy =      -6.5390736097643920
    Empirical Dispersion Energy =           0.0000000000000000
    VV10 Nonlocal Energy =                  0.0425856690572325
    Total Energy =                        -76.4371283756213558

  Dipole Moment: [D]
     X:     0.0000      Y:     0.0030      Z:     1.9088     Total:     1.9088

  Vibration                       7                   8                   9
  Freq [cm^-1]                1639.4964           3857.7385           3958.5106
  Irrep                           A1                  A1                  B2
  Reduced mass [u]              1.0829              1.0449              1.0822
  Force const [mDyne/A]         1.7150              9.1623              9.9910

  ==> Thermochemistry Components <==

  Entropy, S
    Electronic S            0.000 [cal/(mol K)]        0.000 [J/(mol K)]       0.00000000 [mEh/K] (multiplicity = 1)
    Translational S        34.608 [cal/(mol K)]      144.801 [J/(mol K)]       0.05515177 [mEh/K] (mol. weight = 18.0106 [u], P = 101325.00 [Pa])
    Rotational S           10.456 [cal/(mol K)]       43.746 [J/(mol K)]       0.01666195 [mEh/K] (symmetry no. = 2)
    Vibrational S           0.006 [cal/(mol K)]        0.027 [J/(mol K)]       0.00001035 [mEh/K]
  Total S                  45.070 [cal/(mol K)]      188.574 [J/(mol K)]       0.07182407 [mEh/K]
  Correction S              0.000 [cal/(mol K)]        0.000 [J/(mol K)]       0.00000000 [mEh/K]

  Constant volume heat capacity, Cv
    Electronic Cv           0.000 [cal/(mol K)]        0.000 [J/(mol K)]       0.00000000 [mEh/K]
    Translational Cv        2.981 [cal/(mol K)]       12.472 [J/(mol K)]       0.00475022 [mEh/K]
    Rotational Cv           2.981 [cal/(mol K)]       12.472 [J/(mol K)]       0.00475022 [mEh/K]
    Vibrational Cv          0.046 [cal/(mol K)]        0.191 [J/(mol K)]       0.00007271 [mEh/K]
  Total Cv                  6.007 [cal/(mol K)]       25.134 [J/(mol K)]       0.00957314 [mEh/K]
  Correction Cv             0.000 [cal/(mol K)]        0.000 [J/(mol K)]       0.00000000 [mEh/K]

  Constant pressure heat capacity, Cp
    Electronic Cp           0.000 [cal/(mol K)]        0.000 [J/(mol K)]       0.00000000 [mEh/K]
    Translational Cp        4.968 [cal/(mol K)]       20.786 [J/(mol K)]       0.00791703 [mEh/K]
    Rotational Cp           2.981 [cal/(mol K)]       12.472 [J/(mol K)]       0.00475022 [mEh/K]
    Vibrational Cp          0.046 [cal/(mol K)]        0.191 [J/(mol K)]       0.00007271 [mEh/K]
  Total Cp                  7.994 [cal/(mol K)]       33.449 [J/(mol K)]       0.01273995 [mEh/K]
  Correction Cp             0.000 [cal/(mol K)]        0.000 [J/(mol K)]       0.00000000 [mEh/K]

  ==> Thermochemistry Energy Analysis <==

  Raw electronic energy, E0
  Total E0, Electronic energy at well bottom at 0 [K]                  -76.43713579 [Eh]

  Zero-point energy, ZPE_vib = Sum_i nu_i / 2
    Electronic ZPE          0.000 [kcal/mol]        0.000 [kJ/mol]       0.00000000 [Eh]
    Translational ZPE       0.000 [kcal/mol]        0.000 [kJ/mol]       0.00000000 [Eh]
    Rotational ZPE          0.000 [kcal/mol]        0.000 [kJ/mol]       0.00000000 [Eh]
    Vibrational ZPE        13.518 [kcal/mol]       56.558 [kJ/mol]       0.02154177 [Eh]        4727.873 [cm^-1]
  Correction ZPE           13.518 [kcal/mol]       56.558 [kJ/mol]       0.02154177 [Eh]        4727.873 [cm^-1]
  Total ZPE, Electronic energy at 0 [K]                                -76.41559402 [Eh]

  Thermal Energy, E (includes ZPE)
    Electronic E            0.000 [kcal/mol]        0.000 [kJ/mol]       0.00000000 [Eh]
    Translational E         0.889 [kcal/mol]        3.718 [kJ/mol]       0.00141628 [Eh]
    Rotational E            0.889 [kcal/mol]        3.718 [kJ/mol]       0.00141628 [Eh]
    Vibrational E          13.519 [kcal/mol]       56.565 [kJ/mol]       0.02154451 [Eh]
  Correction E             15.297 [kcal/mol]       64.002 [kJ/mol]       0.02437707 [Eh]
  Total E, Electronic energy at  298.15 [K]                            -76.41275872 [Eh]

  Enthalpy, H_trans = E_trans + k_B * T
    Electronic H            0.000 [kcal/mol]        0.000 [kJ/mol]       0.00000000 [Eh]
    Translational H         1.481 [kcal/mol]        6.197 [kJ/mol]       0.00236046 [Eh]
    Rotational H            0.889 [kcal/mol]        3.718 [kJ/mol]       0.00141628 [Eh]
    Vibrational H          13.519 [kcal/mol]       56.565 [kJ/mol]       0.02154451 [Eh]
  Correction H             15.889 [kcal/mol]       66.481 [kJ/mol]       0.02532125 [Eh]
  Total H, Enthalpy at  298.15 [K]                                     -76.41181454 [Eh]

  Gibbs free energy, G = H - T * S
    Electronic G            0.000 [kcal/mol]        0.000 [kJ/mol]       0.00000000 [Eh]
    Translational G        -8.837 [kcal/mol]      -36.975 [kJ/mol]      -0.01408304 [Eh]
    Rotational G           -2.229 [kcal/mol]       -9.324 [kJ/mol]      -0.00355148 [Eh]
    Vibrational G          13.517 [kcal/mol]       56.557 [kJ/mol]       0.02154143 [Eh]
  Correction G              2.452 [kcal/mol]       10.258 [kJ/mol]       0.00390690 [Eh]
  Total G, Free enthalpy at  298.15 [K]                                -76.43322889 [Eh]

*** Psi4 exiting successfully. Buy a developer a beer!
