                               Psi4 1.3.2 release

  ==> Input File <==

--------------------------------------------------------------------------
memory 144 GB

molecule {
0 1
S 0.0000000000 0.0000000000 0.0000000000
H 0.0000000000 0.0000000000 1.3377284100
H 1.3366219004 0.0000000000 -0.0543984776
}

set dynamic_level 1
set basis cc-pV(Q+d)Z

optimize("wB97X-V")
frequencies("wB97X-V")
--------------------------------------------------------------------------

    Molecular point group: c2v
  Charge       = 0
  Multiplicity = 1
  Basis Set: CC-PV(Q+D)Z
    Blend: CC-PV(Q+D)Z
  Basis Set: (CC-PV(Q+D)Z AUX)
    Blend: CC-PVQZ-JKFIT
  @DF-RKS Final Energy:  -399.35280952406640
    Total Energy =                       -399.3528095240663447
    Molecular point group: c2v
  Basis Set: CC-PV(Q+D)Z
    Blend: CC-PV(Q+D)Z
  Basis Set: (CC-PV(Q+D)Z AUX)
    Blend: CC-PVQZ-JKFIT
  @DF-RKS Final Energy:  -399.35280455420548
    Total Energy =                       -399.3528045542054201
  Basis Set: CC-PV(Q+D)Z
    Blend: CC-PV(Q+D)Z
  Basis Set: (CC-PV(Q+D)Z AUX)
    Blend: CC-PVQZ-JKFIT
  @DF-RKS Final Energy:  -399.35281033915214
    Total Energy =                       -399.3528103391521427
  Basis Set: CC-PV(Q+D)Z
    Blend: CC-PV(Q+D)Z
  Basis Set: (CC-PV(Q+D)Z AUX)
    Blend: CC-PVQZ-JKFIT
  @DF-RKS Final Energy:  -399.35280592053152
    Total Energy =                       -399.3528059205315799
  @DF-RKS Final Energy:  -399.35280865124946
    Total Energy =                       -399.3528086512495179
  @DF-RKS Final Energy:  -399.35281282397881
    Total Energy =                       -399.3528128239788089
  @DF-RKS Final Energy:  -399.35281072848454
    Total Energy =                       -399.3528107284845419
  @DF-RKS Final Energy:  -399.35281077309969
    Total Energy =                       -399.3528107730996339
  @DF-RKS Final Energy:  -399.35281101558911
    Total Energy =                       -399.3528110155890545
  @DF-RKS Final Energy:  -399.35281014294839
    Total Energy =                       -399.3528101429482717
  **** Optimization is complete! (in 2 steps) ****
    Final optimized geometry and variables:
  @DF-RKS Final Energy:  -399.35281282397909
    Total Energy =                       -399.3528128239790931
  @DF-RKS Final Energy:  -399.35281072848386
    Total Energy =                       -399.3528107284838597
  @DF-RKS Final Energy:  -399.35281077309969
    Total Energy =                       -399.3528107730997476
  @DF-RKS Final Energy:  -399.35281101558911
    Total Energy =                       -399.3528110155890545
  @DF-RKS Final Energy:  -399.35281014294793
    Total Energy =                       -399.3528101429479875
  @DF-RKS Final Energy:  -399.35281282397978
    Total Energy =                       -399.3528128239797752
  @DF-RKS Final Energy:  -399.35281072848414
    Total Energy =                       -399.3528107284842577
  @DF-RKS Final Energy:  -399.35281077310020
    Total Energy =                       -399.3528107731002592
  @DF-RKS Final Energy:  -399.35281101558923
    Total Energy =                       -399.3528110155892250
  Basis Set: CC-PV(Q+D)Z
    Blend: CC-PV(Q+D)Z
  Basis Set: (CC-PV(Q+D)Z AUX)
    Blend: CC-PVQZ-JKFIT
  @DF-RKS Final Energy:  -399.35281014294867
    Total Energy =                       -399.3528101429486696
  Basis Set: CC-PV(Q+D)Z
    Blend: CC-PV(Q+D)Z
  Basis Set: (CC-PV(Q+D)Z AUX)
    Blend: CC-PVQZ-JKFIT
  @DF-RKS Final Energy:  -399.35281099168571
    Total Energy =                       -399.3528109916857147
  Multiplicity = 1
  Basis Set: CC-PV(Q+D)Z
    Blend: CC-PV(Q+D)Z
  Basis Set: (CC-PV(Q+D)Z AUX)
    Blend: CC-PVQZ-JKFIT
  @DF-RKS Final Energy:  -399.35281182091791
    Total Energy =                       -399.3528118209179070
    Molecular point group: cs

    Geometry (in Angstrom), charge = 0, multiplicity = 1:

       Center              X                  Y                   Z               Mass
    ------------   -----------------  -----------------  -----------------  -----------------
         S            0.000000000000    -0.000083652572    -0.054743437834    31.972071174400
         H            0.000000000000     0.969168968232     0.869601311006     1.007825032230
         H            0.000000000000    -0.966515188149     0.867070268675     1.007825032230

  Charge       = 0
  Multiplicity = 1
  Basis Set: CC-PV(Q+D)Z
    Blend: CC-PV(Q+D)Z
  Basis Set: (CC-PV(Q+D)Z AUX)
    Blend: CC-PVQZ-JKFIT

    Orbital Energies [Eh]
    ---------------------

    Doubly Occupied:

       1Ap   -88.894849     2Ap    -8.052084     3Ap    -6.009274
       4Ap    -6.005896     1App   -5.999942     5Ap    -0.871846
       6Ap    -0.551676     7Ap    -0.471328     2App   -0.366386

  @DF-RKS Final Energy:  -399.35280921665651

   => Energetics <=

    Nuclear Repulsion Energy =             12.9344923206796416
    One-Electron Energy =                -576.7266607697082463
    Two-Electron Energy =                 184.0976455894136166
    DFT Exchange-Correlation Energy =     -19.7340450157250373
    Empirical Dispersion Energy =           0.0000000000000000
    VV10 Nonlocal Energy =                  0.0757586586835160
    Total Energy =                       -399.3528092166565102

  Dipole Moment: [D]
     X:     0.0000      Y:     0.0000      Z:     1.0773     Total:     1.0773

  Vibration                       7                   8                   9
  Freq [cm^-1]                1221.9275           2761.4794           2763.1133
  Irrep                           A1                  B2                  A1
  Reduced mass [u]              1.0394              1.0400              1.0358
  Force const [mDyne/A]         0.9144              4.6728              4.6594

  ==> Thermochemistry Components <==

  Entropy, S
    Electronic S            0.000 [cal/(mol K)]        0.000 [J/(mol K)]       0.00000000 [mEh/K] (multiplicity = 1)
    Translational S        36.501 [cal/(mol K)]      152.721 [J/(mol K)]       0.05816835 [mEh/K] (mol. weight = 33.9877 [u], P = 101325.00 [Pa])
    Rotational S           12.574 [cal/(mol K)]       52.608 [J/(mol K)]       0.02003729 [mEh/K] (symmetry no. = 2)
    Vibrational S           0.038 [cal/(mol K)]        0.158 [J/(mol K)]       0.00006033 [mEh/K]
  Total S                  49.113 [cal/(mol K)]      205.487 [J/(mol K)]       0.07826598 [mEh/K]
  Correction S              0.000 [cal/(mol K)]        0.000 [J/(mol K)]       0.00000000 [mEh/K]

  Constant volume heat capacity, Cv
    Electronic Cv           0.000 [cal/(mol K)]        0.000 [J/(mol K)]       0.00000000 [mEh/K]
    Translational Cv        2.981 [cal/(mol K)]       12.472 [J/(mol K)]       0.00475022 [mEh/K]
    Rotational Cv           2.981 [cal/(mol K)]       12.472 [J/(mol K)]       0.00475022 [mEh/K]
    Vibrational Cv          0.192 [cal/(mol K)]        0.804 [J/(mol K)]       0.00030616 [mEh/K]
  Total Cv                  6.154 [cal/(mol K)]       25.747 [J/(mol K)]       0.00980659 [mEh/K]
  Correction Cv             0.000 [cal/(mol K)]        0.000 [J/(mol K)]       0.00000000 [mEh/K]

  Constant pressure heat capacity, Cp
    Electronic Cp           0.000 [cal/(mol K)]        0.000 [J/(mol K)]       0.00000000 [mEh/K]
    Translational Cp        4.968 [cal/(mol K)]       20.786 [J/(mol K)]       0.00791703 [mEh/K]
    Rotational Cp           2.981 [cal/(mol K)]       12.472 [J/(mol K)]       0.00475022 [mEh/K]
    Vibrational Cp          0.192 [cal/(mol K)]        0.804 [J/(mol K)]       0.00030616 [mEh/K]
  Total Cp                  8.141 [cal/(mol K)]       34.062 [J/(mol K)]       0.01297340 [mEh/K]
  Correction Cp             0.000 [cal/(mol K)]        0.000 [J/(mol K)]       0.00000000 [mEh/K]

  ==> Thermochemistry Energy Analysis <==

  Raw electronic energy, E0
  Total E0, Electronic energy at well bottom at 0 [K]                 -399.35281282 [Eh]

  Zero-point energy, ZPE_vib = Sum_i nu_i / 2
    Electronic ZPE          0.000 [kcal/mol]        0.000 [kJ/mol]       0.00000000 [Eh]
    Translational ZPE       0.000 [kcal/mol]        0.000 [kJ/mol]       0.00000000 [Eh]
    Rotational ZPE          0.000 [kcal/mol]        0.000 [kJ/mol]       0.00000000 [Eh]
    Vibrational ZPE         9.645 [kcal/mol]       40.353 [kJ/mol]       0.01536970 [Eh]        3373.260 [cm^-1]
  Correction ZPE            9.645 [kcal/mol]       40.353 [kJ/mol]       0.01536970 [Eh]        3373.260 [cm^-1]
  Total ZPE, Electronic energy at 0 [K]                               -399.33744312 [Eh]

  Thermal Energy, E (includes ZPE)
    Electronic E            0.000 [kcal/mol]        0.000 [kJ/mol]       0.00000000 [Eh]
    Translational E         0.889 [kcal/mol]        3.718 [kJ/mol]       0.00141628 [Eh]
    Rotational E            0.889 [kcal/mol]        3.718 [kJ/mol]       0.00141628 [Eh]
    Vibrational E           9.654 [kcal/mol]       40.394 [kJ/mol]       0.01538509 [Eh]
  Correction E             11.432 [kcal/mol]       47.830 [kJ/mol]       0.01821764 [Eh]
  Total E, Electronic energy at  298.15 [K]                           -399.33459518 [Eh]

  Enthalpy, H_trans = E_trans + k_B * T
    Electronic H            0.000 [kcal/mol]        0.000 [kJ/mol]       0.00000000 [Eh]
    Translational H         1.481 [kcal/mol]        6.197 [kJ/mol]       0.00236046 [Eh]
    Rotational H            0.889 [kcal/mol]        3.718 [kJ/mol]       0.00141628 [Eh]
    Vibrational H           9.654 [kcal/mol]       40.394 [kJ/mol]       0.01538509 [Eh]
  Correction H             12.024 [kcal/mol]       50.309 [kJ/mol]       0.01916183 [Eh]
  Total H, Enthalpy at  298.15 [K]                                    -399.33365100 [Eh]

  Gibbs free energy, G = H - T * S
    Electronic G            0.000 [kcal/mol]        0.000 [kJ/mol]       0.00000000 [Eh]
    Translational G        -9.402 [kcal/mol]      -39.336 [kJ/mol]      -0.01498243 [Eh]
    Rotational G           -2.860 [kcal/mol]      -11.967 [kJ/mol]      -0.00455784 [Eh]
    Vibrational G           9.643 [kcal/mol]       40.346 [kJ/mol]       0.01536710 [Eh]
  Correction G             -2.619 [kcal/mol]      -10.957 [kJ/mol]      -0.00417317 [Eh]
  Total G, Free enthalpy at  298.15 [K]                               -399.35698600 [Eh]

*** Psi4 exiting successfully. Buy a developer a beer!
