                               Psi4 1.3.2 release

  ==> Input File <==

--------------------------------------------------------------------------
memory 144 GB

molecule {
0 1
Cl 0.0000000000 0.0000000000 0.0000000000
H 0.0000000000 0.0000000000 1.2756042300
}

set dynamic_level 1
set basis cc-pV(Q+d)Z

optimize("wB97X-V")
frequencies("wB97X-V")
--------------------------------------------------------------------------

    Molecular point group: c2v
  Charge       = 0
  Multiplicity = 1
  Basis Set: CC-PV(Q+D)Z
    Blend: CC-PV(Q+D)Z
  Basis Set: (CC-PV(Q+D)Z AUX)
    Blend: CC-PVQZ-JKFIT
  @DF-RKS Final Energy:  -460.76057390479815
    Total Energy =                       -460.7605739047981501
    Molecular point group: c2v
  Basis Set: CC-PV(Q+D)Z
    Blend: CC-PV(Q+D)Z
  Basis Set: (CC-PV(Q+D)Z AUX)
    Blend: CC-PVQZ-JKFIT
  @DF-RKS Final Energy:  -460.76057012701830
    Total Energy =                       -460.7605701270182976
  Basis Set: CC-PV(Q+D)Z
    Blend: CC-PV(Q+D)Z
  Basis Set: (CC-PV(Q+D)Z AUX)
    Blend: CC-PVQZ-JKFIT
  @DF-RKS Final Energy:  -460.76056898842637
    Total Energy =                       -460.7605689884263711
  **** Optimization is complete! (in 1 steps) ****
    Final optimized geometry and variables:
  Basis Set: CC-PV(Q+D)Z
    Blend: CC-PV(Q+D)Z
  Basis Set: (CC-PV(Q+D)Z AUX)
    Blend: CC-PVQZ-JKFIT
  @DF-RKS Final Energy:  -460.76057390479798
    Total Energy =                       -460.7605739047979796
  @DF-RKS Final Energy:  -460.76057012701887
    Total Energy =                       -460.7605701270189229
  Basis Set: CC-PV(Q+D)Z
    Blend: CC-PV(Q+D)Z
  Basis Set: (CC-PV(Q+D)Z AUX)
    Blend: CC-PVQZ-JKFIT
  @DF-RKS Final Energy:  -460.76056898842603
    Total Energy =                       -460.7605689884260300
  Basis Set: CC-PV(Q+D)Z
    Blend: CC-PV(Q+D)Z
  Basis Set: (CC-PV(Q+D)Z AUX)
    Blend: CC-PVQZ-JKFIT
  @DF-RKS Final Energy:  -460.76057390479798
    Total Energy =                       -460.7605739047979796
  Multiplicity = 1
  Basis Set: CC-PV(Q+D)Z
    Blend: CC-PV(Q+D)Z
  Basis Set: (CC-PV(Q+D)Z AUX)
    Blend: CC-PVQZ-JKFIT
  @DF-RKS Final Energy:  -460.76057012701892
    Total Energy =                       -460.7605701270189797
    Molecular point group: c2v

    Geometry (in Angstrom), charge = 0, multiplicity = 1:

       Center              X                  Y                   Z               Mass
    ------------   -----------------  -----------------  -----------------  -----------------
         CL           0.000000000000     0.000000000000    -0.035658980559    34.968852682000
         H            0.000000000000     0.000000000000     1.237271945106     1.007825032230

  Charge       = 0
  Multiplicity = 1
  Basis Set: CC-PV(Q+D)Z
    Blend: CC-PV(Q+D)Z
  Basis Set: (CC-PV(Q+D)Z AUX)
    Blend: CC-PVQZ-JKFIT

    Orbital Energies [Eh]
    ---------------------

    Doubly Occupied:

       1A1  -101.556219     2A1    -9.573668     3A1    -7.329692
       1B1    -7.320895     1B2    -7.320895     4A1    -0.975337
       5A1    -0.581077     2B2    -0.440796     2B1    -0.440796

  @DF-RKS Final Energy:  -460.76056898842648

   => Energetics <=

    Nuclear Repulsion Energy =              7.0671647612708357
    One-Electron Energy =                -649.9183523572764898
    Two-Electron Energy =                 203.5517424876444466
    DFT Exchange-Correlation Energy =     -21.5375373908970857
    Empirical Dispersion Energy =           0.0000000000000000
    VV10 Nonlocal Energy =                  0.0764135108317449
    Total Energy =                       -460.7605689884265416

  Dipole Moment: [D]
     X:     0.0000      Y:     0.0000      Z:     1.1642     Total:     1.1642

  Vibration                       6
  Freq [cm^-1]                3031.4321
  Irrep                           A1
  Reduced mass [u]              1.0360
  Force const [mDyne/A]         5.6093

  ==> Thermochemistry Components <==

  Entropy, S
    Electronic S            0.000 [cal/(mol K)]        0.000 [J/(mol K)]       0.00000000 [mEh/K] (multiplicity = 1)
    Translational S        36.671 [cal/(mol K)]      153.430 [J/(mol K)]       0.05843851 [mEh/K] (mol. weight = 35.9767 [u], P = 101325.00 [Pa])
    Rotational S            7.900 [cal/(mol K)]       33.052 [J/(mol K)]       0.01258877 [mEh/K] (symmetry no. = 1)
    Vibrational S           0.000 [cal/(mol K)]        0.000 [J/(mol K)]       0.00000002 [mEh/K]
  Total S                  44.570 [cal/(mol K)]      186.482 [J/(mol K)]       0.07102730 [mEh/K]
  Correction S              0.000 [cal/(mol K)]        0.000 [J/(mol K)]       0.00000000 [mEh/K]

  Constant volume heat capacity, Cv
    Electronic Cv           0.000 [cal/(mol K)]        0.000 [J/(mol K)]       0.00000000 [mEh/K]
    Translational Cv        2.981 [cal/(mol K)]       12.472 [J/(mol K)]       0.00475022 [mEh/K]
    Rotational Cv           1.987 [cal/(mol K)]        8.314 [J/(mol K)]       0.00316681 [mEh/K]
    Vibrational Cv          0.000 [cal/(mol K)]        0.001 [J/(mol K)]       0.00000030 [mEh/K]
  Total Cv                  4.968 [cal/(mol K)]       20.787 [J/(mol K)]       0.00791733 [mEh/K]
  Correction Cv             0.000 [cal/(mol K)]        0.000 [J/(mol K)]       0.00000000 [mEh/K]

  Constant pressure heat capacity, Cp
    Electronic Cp           0.000 [cal/(mol K)]        0.000 [J/(mol K)]       0.00000000 [mEh/K]
    Translational Cp        4.968 [cal/(mol K)]       20.786 [J/(mol K)]       0.00791703 [mEh/K]
    Rotational Cp           1.987 [cal/(mol K)]        8.314 [J/(mol K)]       0.00316681 [mEh/K]
    Vibrational Cp          0.000 [cal/(mol K)]        0.001 [J/(mol K)]       0.00000030 [mEh/K]
  Total Cp                  6.955 [cal/(mol K)]       29.101 [J/(mol K)]       0.01108414 [mEh/K]
  Correction Cp             0.000 [cal/(mol K)]        0.000 [J/(mol K)]       0.00000000 [mEh/K]

  ==> Thermochemistry Energy Analysis <==

  Raw electronic energy, E0
  Total E0, Electronic energy at well bottom at 0 [K]                 -460.76057390 [Eh]

  Zero-point energy, ZPE_vib = Sum_i nu_i / 2
    Electronic ZPE          0.000 [kcal/mol]        0.000 [kJ/mol]       0.00000000 [Eh]
    Translational ZPE       0.000 [kcal/mol]        0.000 [kJ/mol]       0.00000000 [Eh]
    Rotational ZPE          0.000 [kcal/mol]        0.000 [kJ/mol]       0.00000000 [Eh]
    Vibrational ZPE         4.334 [kcal/mol]       18.132 [kJ/mol]       0.00690611 [Eh]        1515.716 [cm^-1]
  Correction ZPE            4.334 [kcal/mol]       18.132 [kJ/mol]       0.00690611 [Eh]        1515.716 [cm^-1]
  Total ZPE, Electronic energy at 0 [K]                               -460.75366779 [Eh]

  Thermal Energy, E (includes ZPE)
    Electronic E            0.000 [kcal/mol]        0.000 [kJ/mol]       0.00000000 [Eh]
    Translational E         0.889 [kcal/mol]        3.718 [kJ/mol]       0.00141628 [Eh]
    Rotational E            0.592 [kcal/mol]        2.479 [kJ/mol]       0.00094418 [Eh]
    Vibrational E           4.334 [kcal/mol]       18.132 [kJ/mol]       0.00690612 [Eh]
  Correction E              5.815 [kcal/mol]       24.329 [kJ/mol]       0.00926658 [Eh]
  Total E, Electronic energy at  298.15 [K]                           -460.75130733 [Eh]

  Enthalpy, H_trans = E_trans + k_B * T
    Electronic H            0.000 [kcal/mol]        0.000 [kJ/mol]       0.00000000 [Eh]
    Translational H         1.481 [kcal/mol]        6.197 [kJ/mol]       0.00236046 [Eh]
    Rotational H            0.592 [kcal/mol]        2.479 [kJ/mol]       0.00094418 [Eh]
    Vibrational H           4.334 [kcal/mol]       18.132 [kJ/mol]       0.00690612 [Eh]
  Correction H              6.407 [kcal/mol]       26.808 [kJ/mol]       0.01021076 [Eh]
  Total H, Enthalpy at  298.15 [K]                                    -460.75036314 [Eh]

  Gibbs free energy, G = H - T * S
    Electronic G            0.000 [kcal/mol]        0.000 [kJ/mol]       0.00000000 [Eh]
    Translational G        -9.452 [kcal/mol]      -39.548 [kJ/mol]      -0.01506298 [Eh]
    Rotational G           -1.763 [kcal/mol]       -7.375 [kJ/mol]      -0.00280916 [Eh]
    Vibrational G           4.334 [kcal/mol]       18.132 [kJ/mol]       0.00690611 [Eh]
  Correction G             -6.881 [kcal/mol]      -28.791 [kJ/mol]      -0.01096603 [Eh]
  Total G, Free enthalpy at  298.15 [K]                               -460.77153993 [Eh]

*** Psi4 exiting successfully. Buy a developer a beer!
