                               Psi4 1.3.2 release

  ==> Input File <==

--------------------------------------------------------------------------
memory 144 GB

molecule {
0 1
H 0.0000000000 0.0000000000 0.0000000000
C 0.0000000000 0.0000000000 1.0668000000
N 0.0000000000 0.0000000000 2.2232000000
}

set dynamic_level 1
set basis cc-pV(Q+d)Z

optimize("wB97X-V")
frequencies("wB97X-V")
--------------------------------------------------------------------------

    Molecular point group: c2v
  Charge       = 0
  Multiplicity = 1
  Basis Set: CC-PV(Q+D)Z
    Blend: CC-PV(Q+D)Z
  Basis Set: (CC-PV(Q+D)Z AUX)
    Blend: CC-PVQZ-JKFIT
  @DF-RKS Final Energy:   -93.43302304783843
    Total Energy =                        -93.4330230478384323
    Molecular point group: c2v
  Basis Set: CC-PV(Q+D)Z
    Blend: CC-PV(Q+D)Z
  Basis Set: (CC-PV(Q+D)Z AUX)
    Blend: CC-PVQZ-JKFIT
  @DF-RKS Final Energy:   -93.43302732382922
    Total Energy =                        -93.4330273238292222
  Basis Set: CC-PV(Q+D)Z
    Blend: CC-PV(Q+D)Z
  Basis Set: (CC-PV(Q+D)Z AUX)
    Blend: CC-PVQZ-JKFIT
  @DF-RKS Final Energy:   -93.43300828520394
    Total Energy =                        -93.4330082852039396
  Basis Set: CC-PV(Q+D)Z
    Blend: CC-PV(Q+D)Z
  Basis Set: (CC-PV(Q+D)Z AUX)
    Blend: CC-PVQZ-JKFIT
  @DF-RKS Final Energy:   -93.43296251518646
    Total Energy =                        -93.4329625151864747
  @DF-RKS Final Energy:   -93.43307827930951
    Total Energy =                        -93.4330782793095267
  @DF-RKS Final Energy:   -93.43334391917544
    Total Energy =                        -93.4333439191754422
  @DF-RKS Final Energy:   -93.43333676628018
    Total Energy =                        -93.4333367662801777
  @DF-RKS Final Energy:   -93.43334074326938
    Total Energy =                        -93.4333407432693690
  @DF-RKS Final Energy:   -93.43334090182020
    Total Energy =                        -93.4333409018202019
  @DF-RKS Final Energy:   -93.43334128116216
    Total Energy =                        -93.4333412811621571
  @DF-RKS Final Energy:   -93.43334415437612
    Total Energy =                        -93.4333441543761296
  @DF-RKS Final Energy:   -93.43333910049896
    Total Energy =                        -93.4333391004989551
  @DF-RKS Final Energy:   -93.43333884751755
    Total Energy =                        -93.4333388475175468
  @DF-RKS Final Energy:   -93.43334133369181
    Total Energy =                        -93.4333413336917999
  @DF-RKS Final Energy:   -93.43334131373808
    Total Energy =                        -93.4333413137380830
  **** Optimization is complete! (in 3 steps) ****
    Final optimized geometry and variables:
  @DF-RKS Final Energy:   -93.43334415437596
    Total Energy =                        -93.4333441543759591
  @DF-RKS Final Energy:   -93.43333910049923
    Total Energy =                        -93.4333391004992251
  @DF-RKS Final Energy:   -93.43333884751780
    Total Energy =                        -93.4333388475178026
  @DF-RKS Final Energy:   -93.43334133369150
    Total Energy =                        -93.4333413336915015
  @DF-RKS Final Energy:   -93.43334131373787
    Total Energy =                        -93.4333413137378699
  @DF-RKS Final Energy:   -93.43334415437617
    Total Energy =                        -93.4333441543761722
  @DF-RKS Final Energy:   -93.43333910049944
    Total Energy =                        -93.4333391004994525
  @DF-RKS Final Energy:   -93.43333884751796
    Total Energy =                        -93.4333388475179589
  @DF-RKS Final Energy:   -93.43334133369174
    Total Energy =                        -93.4333413336917431
  @DF-RKS Final Energy:   -93.43334131373817
    Total Energy =                        -93.4333413137381683
  Basis Set: CC-PV(Q+D)Z
    Blend: CC-PV(Q+D)Z
  Basis Set: (CC-PV(Q+D)Z AUX)
    Blend: CC-PVQZ-JKFIT
  @DF-RKS Final Energy:   -93.43333829974533
    Total Energy =                        -93.4333382997453299
  Basis Set: CC-PV(Q+D)Z
    Blend: CC-PV(Q+D)Z
  Basis Set: (CC-PV(Q+D)Z AUX)
    Blend: CC-PVQZ-JKFIT
  @DF-RKS Final Energy:   -93.43333854707606
    Total Energy =                        -93.4333385470760760
  Multiplicity = 1
  Basis Set: CC-PV(Q+D)Z
    Blend: CC-PV(Q+D)Z
  Basis Set: (CC-PV(Q+D)Z AUX)
    Blend: CC-PVQZ-JKFIT
  @DF-RKS Final Energy:   -93.43334386634579
    Total Energy =                        -93.4333438663457798
    Molecular point group: cs

    Geometry (in Angstrom), charge = 0, multiplicity = 1:

       Center              X                  Y                   Z               Mass
    ------------   -----------------  -----------------  -----------------  -----------------
         H            0.000000000000    -0.002246169014    -1.622446292396     1.007825032230
         C            0.000000000000     0.000364792714    -0.553567151837    12.000000000000
         N            0.000000000000    -0.000150950227     0.591152186038    14.003074004430

  Charge       = 0
  Multiplicity = 1
  Basis Set: CC-PV(Q+D)Z
    Blend: CC-PV(Q+D)Z
  Basis Set: (CC-PV(Q+D)Z AUX)
    Blend: CC-PVQZ-JKFIT

    Orbital Energies [Eh]
    ---------------------

    Doubly Occupied:

       1Ap   -14.431582     2Ap   -10.321700     3Ap    -1.057564
       4Ap    -0.727372     5Ap    -0.499524     1App   -0.476165
       6Ap    -0.476165

  @DF-RKS Final Energy:   -93.43334386628977

   => Energetics <=

    Nuclear Repulsion Energy =             24.0594773453239412
    One-Electron Energy =                -173.1241539026137275
    Two-Electron Energy =                  64.3722492169426204
    DFT Exchange-Correlation Energy =      -8.7993058215309965
    Empirical Dispersion Energy =           0.0000000000000000
    VV10 Nonlocal Energy =                  0.0583892955883655
    Total Energy =                        -93.4333438662897748

  Dipole Moment: [D]
     X:     0.0000      Y:    -0.0024      Z:    -3.0648     Total:     3.0648

  Vibration                       6                   7                   8
  Freq [cm^-1]                 780.3122            780.3881           2237.5985
  Irrep                           B1                  B2                  A1
  Reduced mass [u]              1.3460              1.3460              4.9678
  Force const [mDyne/A]         0.4829              0.4830             14.6547

  Vibration                       9
  Freq [cm^-1]                3453.7250
  Irrep                           A1
  Reduced mass [u]              1.1982
  Force const [mDyne/A]         8.4205

  ==> Thermochemistry Components <==

  Entropy, S
    Electronic S            0.000 [cal/(mol K)]        0.000 [J/(mol K)]       0.00000000 [mEh/K] (multiplicity = 1)
    Translational S        35.816 [cal/(mol K)]      149.856 [J/(mol K)]       0.05707695 [mEh/K] (mol. weight = 27.0109 [u], P = 101325.00 [Pa])
    Rotational S           11.778 [cal/(mol K)]       49.280 [J/(mol K)]       0.01876977 [mEh/K] (symmetry no. = 1)
    Vibrational S           0.448 [cal/(mol K)]        1.876 [J/(mol K)]       0.00071437 [mEh/K]
  Total S                  48.043 [cal/(mol K)]      201.011 [J/(mol K)]       0.07656109 [mEh/K]
  Correction S              0.000 [cal/(mol K)]        0.000 [J/(mol K)]       0.00000000 [mEh/K]

  Constant volume heat capacity, Cv
    Electronic Cv           0.000 [cal/(mol K)]        0.000 [J/(mol K)]       0.00000000 [mEh/K]
    Translational Cv        2.981 [cal/(mol K)]       12.472 [J/(mol K)]       0.00475022 [mEh/K]
    Rotational Cv           1.987 [cal/(mol K)]        8.314 [J/(mol K)]       0.00316681 [mEh/K]
    Vibrational Cv          1.372 [cal/(mol K)]        5.741 [J/(mol K)]       0.00218662 [mEh/K]
  Total Cv                  6.340 [cal/(mol K)]       26.527 [J/(mol K)]       0.01010365 [mEh/K]
  Correction Cv             0.000 [cal/(mol K)]        0.000 [J/(mol K)]       0.00000000 [mEh/K]

  Constant pressure heat capacity, Cp
    Electronic Cp           0.000 [cal/(mol K)]        0.000 [J/(mol K)]       0.00000000 [mEh/K]
    Translational Cp        4.968 [cal/(mol K)]       20.786 [J/(mol K)]       0.00791703 [mEh/K]
    Rotational Cp           1.987 [cal/(mol K)]        8.314 [J/(mol K)]       0.00316681 [mEh/K]
    Vibrational Cp          1.372 [cal/(mol K)]        5.741 [J/(mol K)]       0.00218662 [mEh/K]
  Total Cp                  8.327 [cal/(mol K)]       34.842 [J/(mol K)]       0.01327046 [mEh/K]
  Correction Cp             0.000 [cal/(mol K)]        0.000 [J/(mol K)]       0.00000000 [mEh/K]

  ==> Thermochemistry Energy Analysis <==

  Raw electronic energy, E0
  Total E0, Electronic energy at well bottom at 0 [K]                  -93.43334415 [Eh]

  Zero-point energy, ZPE_vib = Sum_i nu_i / 2
    Electronic ZPE          0.000 [kcal/mol]        0.000 [kJ/mol]       0.00000000 [Eh]
    Translational ZPE       0.000 [kcal/mol]        0.000 [kJ/mol]       0.00000000 [Eh]
    Rotational ZPE          0.000 [kcal/mol]        0.000 [kJ/mol]       0.00000000 [Eh]
    Vibrational ZPE        10.367 [kcal/mol]       43.377 [kJ/mol]       0.01652133 [Eh]        3626.012 [cm^-1]
  Correction ZPE           10.367 [kcal/mol]       43.377 [kJ/mol]       0.01652133 [Eh]        3626.012 [cm^-1]
  Total ZPE, Electronic energy at 0 [K]                                -93.41682283 [Eh]

  Thermal Energy, E (includes ZPE)
    Electronic E            0.000 [kcal/mol]        0.000 [kJ/mol]       0.00000000 [Eh]
    Translational E         0.889 [kcal/mol]        3.718 [kJ/mol]       0.00141628 [Eh]
    Rotational E            0.592 [kcal/mol]        2.479 [kJ/mol]       0.00094418 [Eh]
    Vibrational E          10.473 [kcal/mol]       43.820 [kJ/mol]       0.01669006 [Eh]
  Correction E             11.954 [kcal/mol]       50.017 [kJ/mol]       0.01905053 [Eh]
  Total E, Electronic energy at  298.15 [K]                            -93.41429363 [Eh]

  Enthalpy, H_trans = E_trans + k_B * T
    Electronic H            0.000 [kcal/mol]        0.000 [kJ/mol]       0.00000000 [Eh]
    Translational H         1.481 [kcal/mol]        6.197 [kJ/mol]       0.00236046 [Eh]
    Rotational H            0.592 [kcal/mol]        2.479 [kJ/mol]       0.00094418 [Eh]
    Vibrational H          10.473 [kcal/mol]       43.820 [kJ/mol]       0.01669006 [Eh]
  Correction H             12.547 [kcal/mol]       52.496 [kJ/mol]       0.01999471 [Eh]
  Total H, Enthalpy at  298.15 [K]                                     -93.41334944 [Eh]

  Gibbs free energy, G = H - T * S
    Electronic G            0.000 [kcal/mol]        0.000 [kJ/mol]       0.00000000 [Eh]
    Translational G        -9.197 [kcal/mol]      -38.482 [kJ/mol]      -0.01465703 [Eh]
    Rotational G           -2.919 [kcal/mol]      -12.214 [kJ/mol]      -0.00465202 [Eh]
    Vibrational G          10.340 [kcal/mol]       43.261 [kJ/mol]       0.01647708 [Eh]
  Correction G             -1.777 [kcal/mol]       -7.435 [kJ/mol]      -0.00283198 [Eh]
  Total G, Free enthalpy at  298.15 [K]                                -93.43617613 [Eh]

*** Psi4 exiting successfully. Buy a developer a beer!
