                               Psi4 1.3.2 release

  ==> Input File <==

--------------------------------------------------------------------------
memory 144 GB

molecule {
0 1
F 0.0000000000 0.0000000000 0.0000000000
H 0.0000000000 0.0000000000 0.9157690000
}

set dynamic_level 1
set basis cc-pV(Q+d)Z

optimize("wB97X-V")
frequencies("wB97X-V")
--------------------------------------------------------------------------

    Molecular point group: c2v
  Charge       = 0
  Multiplicity = 1
  Basis Set: CC-PV(Q+D)Z
    Blend: CC-PV(Q+D)Z
  Basis Set: (CC-PV(Q+D)Z AUX)
    Blend: CC-PVQZ-JKFIT
  @DF-RKS Final Energy:  -100.45680839011723
    Total Energy =                       -100.4568083901172173
    Molecular point group: c2v
  Basis Set: CC-PV(Q+D)Z
    Blend: CC-PV(Q+D)Z
  Basis Set: (CC-PV(Q+D)Z AUX)
    Blend: CC-PVQZ-JKFIT
  @DF-RKS Final Energy:  -100.45682416752122
    Total Energy =                       -100.4568241675212192
  Basis Set: CC-PV(Q+D)Z
    Blend: CC-PV(Q+D)Z
  Basis Set: (CC-PV(Q+D)Z AUX)
    Blend: CC-PVQZ-JKFIT
  @DF-RKS Final Energy:  -100.45677594873121
    Total Energy =                       -100.4567759487312060
  Basis Set: CC-PV(Q+D)Z
    Blend: CC-PV(Q+D)Z
  Basis Set: (CC-PV(Q+D)Z AUX)
    Blend: CC-PVQZ-JKFIT
  @DF-RKS Final Energy:  -100.45682587863239
    Total Energy =                       -100.4568258786323867
  @DF-RKS Final Energy:  -100.45681895511909
    Total Energy =                       -100.4568189551190898
  @DF-RKS Final Energy:  -100.45681658460815
    Total Energy =                       -100.4568165846081484
  **** Optimization is complete! (in 2 steps) ****
    Final optimized geometry and variables:
  @DF-RKS Final Energy:  -100.45682587863226
    Total Energy =                       -100.4568258786322730
  @DF-RKS Final Energy:  -100.45681895511893
    Total Energy =                       -100.4568189551189334
  Basis Set: CC-PV(Q+D)Z
    Blend: CC-PV(Q+D)Z
  Basis Set: (CC-PV(Q+D)Z AUX)
    Blend: CC-PVQZ-JKFIT
  @DF-RKS Final Energy:  -100.45681658460839
    Total Energy =                       -100.4568165846083758
  Basis Set: CC-PV(Q+D)Z
    Blend: CC-PV(Q+D)Z
  Basis Set: (CC-PV(Q+D)Z AUX)
    Blend: CC-PVQZ-JKFIT
  @DF-RKS Final Energy:  -100.45682587863239
    Total Energy =                       -100.4568258786324009
  Multiplicity = 1
  Basis Set: CC-PV(Q+D)Z
    Blend: CC-PV(Q+D)Z
  Basis Set: (CC-PV(Q+D)Z AUX)
    Blend: CC-PVQZ-JKFIT
  @DF-RKS Final Energy:  -100.45681895511915
    Total Energy =                       -100.4568189551191466
    Molecular point group: c2v

    Geometry (in Angstrom), charge = 0, multiplicity = 1:

       Center              X                  Y                   Z               Mass
    ------------   -----------------  -----------------  -----------------  -----------------
         F            0.000000000000     0.000000000000    -0.046186113035    18.998403162730
         H            0.000000000000     0.000000000000     0.870649535286     1.007825032230

  Charge       = 0
  Multiplicity = 1
  Basis Set: CC-PV(Q+D)Z
    Blend: CC-PV(Q+D)Z
  Basis Set: (CC-PV(Q+D)Z AUX)
    Blend: CC-PVQZ-JKFIT

    Orbital Energies [Eh]
    ---------------------

    Doubly Occupied:

       1A1   -24.745322     2A1    -1.325942     3A1    -0.661618
       1B1    -0.525375     1B2    -0.525375

  @DF-RKS Final Energy:  -100.45681658460822

   => Energetics <=

    Nuclear Repulsion Energy =              5.1946004769240037
    One-Electron Energy =                -150.5260249176998286
    Two-Electron Energy =                  52.5920203023980477
    DFT Exchange-Correlation Energy =      -7.7608099971282662
    Empirical Dispersion Energy =           0.0000000000000000
    VV10 Nonlocal Energy =                  0.0433975508978329
    Total Energy =                       -100.4568165846082053

  Dipole Moment: [D]
     X:     0.0000      Y:     0.0000      Z:     1.8150     Total:     1.8150

  Vibration                       6
  Freq [cm^-1]                4140.2515
  Irrep                           A1
  Reduced mass [u]              1.0583
  Force const [mDyne/A]        10.6885

  ==> Thermochemistry Components <==

  Entropy, S
    Electronic S            0.000 [cal/(mol K)]        0.000 [J/(mol K)]       0.00000000 [mEh/K] (multiplicity = 1)
    Translational S        34.921 [cal/(mol K)]      146.112 [J/(mol K)]       0.05565095 [mEh/K] (mol. weight = 20.0062 [u], P = 101325.00 [Pa])
    Rotational S            6.552 [cal/(mol K)]       27.416 [J/(mol K)]       0.01044206 [mEh/K] (symmetry no. = 1)
    Vibrational S           0.000 [cal/(mol K)]        0.000 [J/(mol K)]       0.00000000 [mEh/K]
  Total S                  41.474 [cal/(mol K)]      173.527 [J/(mol K)]       0.06609301 [mEh/K]
  Correction S              0.000 [cal/(mol K)]        0.000 [J/(mol K)]       0.00000000 [mEh/K]

  Constant volume heat capacity, Cv
    Electronic Cv           0.000 [cal/(mol K)]        0.000 [J/(mol K)]       0.00000000 [mEh/K]
    Translational Cv        2.981 [cal/(mol K)]       12.472 [J/(mol K)]       0.00475022 [mEh/K]
    Rotational Cv           1.987 [cal/(mol K)]        8.314 [J/(mol K)]       0.00316681 [mEh/K]
    Vibrational Cv          0.000 [cal/(mol K)]        0.000 [J/(mol K)]       0.00000000 [mEh/K]
  Total Cv                  4.968 [cal/(mol K)]       20.786 [J/(mol K)]       0.00791703 [mEh/K]
  Correction Cv             0.000 [cal/(mol K)]        0.000 [J/(mol K)]       0.00000000 [mEh/K]

  Constant pressure heat capacity, Cp
    Electronic Cp           0.000 [cal/(mol K)]        0.000 [J/(mol K)]       0.00000000 [mEh/K]
    Translational Cp        4.968 [cal/(mol K)]       20.786 [J/(mol K)]       0.00791703 [mEh/K]
    Rotational Cp           1.987 [cal/(mol K)]        8.314 [J/(mol K)]       0.00316681 [mEh/K]
    Vibrational Cp          0.000 [cal/(mol K)]        0.000 [J/(mol K)]       0.00000000 [mEh/K]
  Total Cp                  6.955 [cal/(mol K)]       29.101 [J/(mol K)]       0.01108384 [mEh/K]
  Correction Cp             0.000 [cal/(mol K)]        0.000 [J/(mol K)]       0.00000000 [mEh/K]

  ==> Thermochemistry Energy Analysis <==

  Raw electronic energy, E0
  Total E0, Electronic energy at well bottom at 0 [K]                 -100.45682588 [Eh]

  Zero-point energy, ZPE_vib = Sum_i nu_i / 2
    Electronic ZPE          0.000 [kcal/mol]        0.000 [kJ/mol]       0.00000000 [Eh]
    Translational ZPE       0.000 [kcal/mol]        0.000 [kJ/mol]       0.00000000 [Eh]
    Rotational ZPE          0.000 [kcal/mol]        0.000 [kJ/mol]       0.00000000 [Eh]
    Vibrational ZPE         5.919 [kcal/mol]       24.764 [kJ/mol]       0.00943219 [Eh]        2070.126 [cm^-1]
  Correction ZPE            5.919 [kcal/mol]       24.764 [kJ/mol]       0.00943219 [Eh]        2070.126 [cm^-1]
  Total ZPE, Electronic energy at 0 [K]                               -100.44739369 [Eh]

  Thermal Energy, E (includes ZPE)
    Electronic E            0.000 [kcal/mol]        0.000 [kJ/mol]       0.00000000 [Eh]
    Translational E         0.889 [kcal/mol]        3.718 [kJ/mol]       0.00141628 [Eh]
    Rotational E            0.592 [kcal/mol]        2.479 [kJ/mol]       0.00094418 [Eh]
    Vibrational E           5.919 [kcal/mol]       24.764 [kJ/mol]       0.00943219 [Eh]
  Correction E              7.400 [kcal/mol]       30.962 [kJ/mol]       0.01179265 [Eh]
  Total E, Electronic energy at  298.15 [K]                           -100.44503323 [Eh]

  Enthalpy, H_trans = E_trans + k_B * T
    Electronic H            0.000 [kcal/mol]        0.000 [kJ/mol]       0.00000000 [Eh]
    Translational H         1.481 [kcal/mol]        6.197 [kJ/mol]       0.00236046 [Eh]
    Rotational H            0.592 [kcal/mol]        2.479 [kJ/mol]       0.00094418 [Eh]
    Vibrational H           5.919 [kcal/mol]       24.764 [kJ/mol]       0.00943219 [Eh]
  Correction H              7.992 [kcal/mol]       33.441 [kJ/mol]       0.01273683 [Eh]
  Total H, Enthalpy at  298.15 [K]                                    -100.44408905 [Eh]

  Gibbs free energy, G = H - T * S
    Electronic G            0.000 [kcal/mol]        0.000 [kJ/mol]       0.00000000 [Eh]
    Translational G        -8.931 [kcal/mol]      -37.366 [kJ/mol]      -0.01423187 [Eh]
    Rotational G           -1.361 [kcal/mol]       -5.695 [kJ/mol]      -0.00216912 [Eh]
    Vibrational G           5.919 [kcal/mol]       24.764 [kJ/mol]       0.00943219 [Eh]
  Correction G             -4.373 [kcal/mol]      -18.297 [kJ/mol]      -0.00696880 [Eh]
  Total G, Free enthalpy at  298.15 [K]                               -100.46379468 [Eh]

*** Psi4 exiting successfully. Buy a developer a beer!
