                               Psi4 1.3.2 release

  ==> Input File <==

--------------------------------------------------------------------------
memory 144 GB

molecule {
0 1
N 0.0000000000 0.0000000000 0.0000000000
H 0.0000000000 0.0000000000 1.0535284100
O 1.1513717966 0.0000000000 -0.3743228181
}

set dynamic_level 1
set basis cc-pV(Q+d)Z

optimize("wB97X-V")
frequencies("wB97X-V")
--------------------------------------------------------------------------

    Molecular point group: cs
  Charge       = 0
  Multiplicity = 1
  Basis Set: CC-PV(Q+D)Z
    Blend: CC-PV(Q+D)Z
  Basis Set: (CC-PV(Q+D)Z AUX)
    Blend: CC-PVQZ-JKFIT
  @DF-RKS Final Energy:  -130.48942521639569
    Total Energy =                       -130.4894252163956878
    Molecular point group: cs
  Basis Set: CC-PV(Q+D)Z
    Blend: CC-PV(Q+D)Z
  Basis Set: (CC-PV(Q+D)Z AUX)
    Blend: CC-PVQZ-JKFIT
  @DF-RKS Final Energy:  -130.48946696725878
    Total Energy =                       -130.4894669672587781
  Basis Set: CC-PV(Q+D)Z
    Blend: CC-PV(Q+D)Z
  Basis Set: (CC-PV(Q+D)Z AUX)
    Blend: CC-PVQZ-JKFIT
  @DF-RKS Final Energy:  -130.48938095571611
    Total Energy =                       -130.4893809557161148
  Basis Set: CC-PV(Q+D)Z
    Blend: CC-PV(Q+D)Z
  Basis Set: (CC-PV(Q+D)Z AUX)
    Blend: CC-PVQZ-JKFIT
  @DF-RKS Final Energy:  -130.48943438098331
    Total Energy =                       -130.4894343809833117
  @DF-RKS Final Energy:  -130.48941066564552
    Total Energy =                       -130.4894106656455222
  @DF-RKS Final Energy:  -130.48942815435970
    Total Energy =                       -130.4894281543597003
  @DF-RKS Final Energy:  -130.48941668093772
    Total Energy =                       -130.4894166809377225
  @DF-RKS Final Energy:  -130.48977986267013
    Total Energy =                       -130.4897798626701615
  @DF-RKS Final Energy:  -130.48978865494161
    Total Energy =                       -130.4897886549416057
  @DF-RKS Final Energy:  -130.48976834334141
    Total Energy =                       -130.4897683433413818
  @DF-RKS Final Energy:  -130.48977907939857
    Total Energy =                       -130.4897790793985735
  @DF-RKS Final Energy:  -130.48977530623327
    Total Energy =                       -130.4897753062332697
  @DF-RKS Final Energy:  -130.48976807864307
    Total Energy =                       -130.4897680786430954
  @DF-RKS Final Energy:  -130.48978601239631
    Total Energy =                       -130.4897860123963085
  @DF-RKS Final Energy:  -130.48979499066053
    Total Energy =                       -130.4897949906605277
  @DF-RKS Final Energy:  -130.48978910667444
    Total Energy =                       -130.4897891066744364
  @DF-RKS Final Energy:  -130.48979807334217
    Total Energy =                       -130.4897980733421718
  @DF-RKS Final Energy:  -130.48979989609740
    Total Energy =                       -130.4897998960973950
  @DF-RKS Final Energy:  -130.48978488002444
    Total Energy =                       -130.4897848800244731
  @DF-RKS Final Energy:  -130.48979452982780
    Total Energy =                       -130.4897945298278330
  **** Optimization is complete! (in 4 steps) ****
    Final optimized geometry and variables:
  @DF-RKS Final Energy:  -130.48981001034844
    Total Energy =                       -130.4898100103484069
  @DF-RKS Final Energy:  -130.48980881095761
    Total Energy =                       -130.4898088109576122
  @DF-RKS Final Energy:  -130.48980842484684
    Total Energy =                       -130.4898084248468138
  @DF-RKS Final Energy:  -130.48980705954250
    Total Energy =                       -130.4898070595425281
  @DF-RKS Final Energy:  -130.48980774444561
    Total Energy =                       -130.4898077444456135
  @DF-RKS Final Energy:  -130.48980668011188
    Total Energy =                       -130.4898066801118830
  @DF-RKS Final Energy:  -130.48980778427790
    Total Energy =                       -130.4898077842779003
  @DF-RKS Final Energy:  -130.48981001034875
    Total Energy =                       -130.4898100103487479
  @DF-RKS Final Energy:  -130.48980881095781
    Total Energy =                       -130.4898088109578111
  @DF-RKS Final Energy:  -130.48980842484693
    Total Energy =                       -130.4898084248469274
  @DF-RKS Final Energy:  -130.48980705954301
    Total Energy =                       -130.4898070595429829
  @DF-RKS Final Energy:  -130.48980774444587
    Total Energy =                       -130.4898077444458977
  @DF-RKS Final Energy:  -130.48980668011211
    Total Energy =                       -130.4898066801121388
  @DF-RKS Final Energy:  -130.48980778427804
    Total Energy =                       -130.4898077842780424
  @DF-RKS Final Energy:  -130.48980633510956
    Total Energy =                       -130.4898063351095630
  @DF-RKS Final Energy:  -130.48980603895416
    Total Energy =                       -130.4898060389541570
  Basis Set: CC-PV(Q+D)Z
    Blend: CC-PV(Q+D)Z
  Basis Set: (CC-PV(Q+D)Z AUX)
    Blend: CC-PVQZ-JKFIT
  @DF-RKS Final Energy:  -130.48980575182799
    Total Energy =                       -130.4898057518279870
  Basis Set: CC-PV(Q+D)Z
    Blend: CC-PV(Q+D)Z
  Basis Set: (CC-PV(Q+D)Z AUX)
    Blend: CC-PVQZ-JKFIT
  @DF-RKS Final Energy:  -130.48980502754864
    Total Energy =                       -130.4898050275486412
  Multiplicity = 1
  Basis Set: CC-PV(Q+D)Z
    Blend: CC-PV(Q+D)Z
  Basis Set: (CC-PV(Q+D)Z AUX)
    Blend: CC-PVQZ-JKFIT
  @DF-RKS Final Energy:  -130.48980843525905
    Total Energy =                       -130.4898084352590502
    Molecular point group: cs

    Geometry (in Angstrom), charge = 0, multiplicity = 1:

       Center              X                  Y                   Z               Mass
    ------------   -----------------  -----------------  -----------------  -----------------
         N            0.585700982680     0.155907839647     0.000000000000    14.003074004430
         H            0.590592697062     1.212733207709     0.000000000000     1.007825032230
         O           -0.549976571812    -0.212905913010     0.000000000000    15.994914619570

  Charge       = 0
  Multiplicity = 1
  Basis Set: CC-PV(Q+D)Z
    Blend: CC-PV(Q+D)Z
  Basis Set: (CC-PV(Q+D)Z AUX)
    Blend: CC-PVQZ-JKFIT

    Orbital Energies [Eh]
    ---------------------

    Doubly Occupied:

       1Ap   -19.295177     2Ap   -14.535736     3Ap    -1.317038
       4Ap    -0.851959     5Ap    -0.653967     1App   -0.579865
       6Ap    -0.573422     7Ap    -0.353396

  @DF-RKS Final Energy:  -130.48980664590559

   => Energetics <=

    Nuclear Repulsion Energy =             30.6414772022649373
    One-Electron Energy =                -238.4591891951290847
    Two-Electron Energy =                  88.4165983919517515
    DFT Exchange-Correlation Energy =     -11.1556541366804236
    Empirical Dispersion Energy =           0.0000000000000000
    VV10 Nonlocal Energy =                  0.0669610916872144
    Total Energy =                       -130.4898066459055883

  Dipole Moment: [D]
     X:     0.4484      Y:     1.6614      Z:     0.0000     Total:     1.7208

  Vibration                       7                   8                   9
  Freq [cm^-1]                1585.4502           1731.1348           2969.8513
  Irrep                           Ap                  Ap                  Ap
  Reduced mass [u]              1.1986             10.8154              1.0756
  Force const [mDyne/A]         1.7751             19.0965              5.5896

  ==> Thermochemistry Components <==

  Entropy, S
    Electronic S            0.000 [cal/(mol K)]        0.000 [J/(mol K)]       0.00000000 [mEh/K] (multiplicity = 1)
    Translational S        36.227 [cal/(mol K)]      151.576 [J/(mol K)]       0.05773217 [mEh/K] (mol. weight = 31.0058 [u], P = 101325.00 [Pa])
    Rotational S           16.442 [cal/(mol K)]       68.791 [J/(mol K)]       0.02620120 [mEh/K] (symmetry no. = 1)
    Vibrational S           0.013 [cal/(mol K)]        0.053 [J/(mol K)]       0.00002004 [mEh/K]
  Total S                  52.682 [cal/(mol K)]      220.420 [J/(mol K)]       0.08395341 [mEh/K]
  Correction S              0.000 [cal/(mol K)]        0.000 [J/(mol K)]       0.00000000 [mEh/K]

  Constant volume heat capacity, Cv
    Electronic Cv           0.000 [cal/(mol K)]        0.000 [J/(mol K)]       0.00000000 [mEh/K]
    Translational Cv        2.981 [cal/(mol K)]       12.472 [J/(mol K)]       0.00475022 [mEh/K]
    Rotational Cv           2.981 [cal/(mol K)]       12.472 [J/(mol K)]       0.00475022 [mEh/K]
    Vibrational Cv          0.088 [cal/(mol K)]        0.369 [J/(mol K)]       0.00014071 [mEh/K]
  Total Cv                  6.050 [cal/(mol K)]       25.313 [J/(mol K)]       0.00964114 [mEh/K]
  Correction Cv             0.000 [cal/(mol K)]        0.000 [J/(mol K)]       0.00000000 [mEh/K]

  Constant pressure heat capacity, Cp
    Electronic Cp           0.000 [cal/(mol K)]        0.000 [J/(mol K)]       0.00000000 [mEh/K]
    Translational Cp        4.968 [cal/(mol K)]       20.786 [J/(mol K)]       0.00791703 [mEh/K]
    Rotational Cp           2.981 [cal/(mol K)]       12.472 [J/(mol K)]       0.00475022 [mEh/K]
    Vibrational Cp          0.088 [cal/(mol K)]        0.369 [J/(mol K)]       0.00014071 [mEh/K]
  Total Cp                  8.037 [cal/(mol K)]       33.627 [J/(mol K)]       0.01280795 [mEh/K]
  Correction Cp             0.000 [cal/(mol K)]        0.000 [J/(mol K)]       0.00000000 [mEh/K]

  ==> Thermochemistry Energy Analysis <==

  Raw electronic energy, E0
  Total E0, Electronic energy at well bottom at 0 [K]                 -130.48981001 [Eh]

  Zero-point energy, ZPE_vib = Sum_i nu_i / 2
    Electronic ZPE          0.000 [kcal/mol]        0.000 [kJ/mol]       0.00000000 [Eh]
    Translational ZPE       0.000 [kcal/mol]        0.000 [kJ/mol]       0.00000000 [Eh]
    Rotational ZPE          0.000 [kcal/mol]        0.000 [kJ/mol]       0.00000000 [Eh]
    Vibrational ZPE         8.987 [kcal/mol]       37.601 [kJ/mol]       0.01432156 [Eh]        3143.218 [cm^-1]
  Correction ZPE            8.987 [kcal/mol]       37.601 [kJ/mol]       0.01432156 [Eh]        3143.218 [cm^-1]
  Total ZPE, Electronic energy at 0 [K]                               -130.47548845 [Eh]

  Thermal Energy, E (includes ZPE)
    Electronic E            0.000 [kcal/mol]        0.000 [kJ/mol]       0.00000000 [Eh]
    Translational E         0.889 [kcal/mol]        3.718 [kJ/mol]       0.00141628 [Eh]
    Rotational E            0.889 [kcal/mol]        3.718 [kJ/mol]       0.00141628 [Eh]
    Vibrational E           8.990 [kcal/mol]       37.615 [kJ/mol]       0.01432686 [Eh]
  Correction E             10.768 [kcal/mol]       45.052 [kJ/mol]       0.01715941 [Eh]
  Total E, Electronic energy at  298.15 [K]                           -130.47265060 [Eh]

  Enthalpy, H_trans = E_trans + k_B * T
    Electronic H            0.000 [kcal/mol]        0.000 [kJ/mol]       0.00000000 [Eh]
    Translational H         1.481 [kcal/mol]        6.197 [kJ/mol]       0.00236046 [Eh]
    Rotational H            0.889 [kcal/mol]        3.718 [kJ/mol]       0.00141628 [Eh]
    Vibrational H           8.990 [kcal/mol]       37.615 [kJ/mol]       0.01432686 [Eh]
  Correction H             11.360 [kcal/mol]       47.531 [kJ/mol]       0.01810360 [Eh]
  Total H, Enthalpy at  298.15 [K]                                    -130.47170641 [Eh]

  Gibbs free energy, G = H - T * S
    Electronic G            0.000 [kcal/mol]        0.000 [kJ/mol]       0.00000000 [Eh]
    Translational G        -9.320 [kcal/mol]      -38.995 [kJ/mol]      -0.01485238 [Eh]
    Rotational G           -4.013 [kcal/mol]      -16.792 [kJ/mol]      -0.00639561 [Eh]
    Vibrational G           8.986 [kcal/mol]       37.599 [kJ/mol]       0.01432088 [Eh]
  Correction G             -4.347 [kcal/mol]      -18.187 [kJ/mol]      -0.00692711 [Eh]
  Total G, Free enthalpy at  298.15 [K]                               -130.49673712 [Eh]

*** Psi4 exiting successfully. Buy a developer a beer!
