                               Psi4 1.3.2 release

  ==> Input File <==

--------------------------------------------------------------------------
memory 144 GB

molecule {
0 1
O 0.0000000000 0.0000000000 0.0000000000
H 0.0000000000 0.0000000000 0.9638997500
Cl 1.6530447720 0.0000000000 -0.3711121967
}

set dynamic_level 1
set basis cc-pV(Q+d)Z

optimize("wB97X-V")
frequencies("wB97X-V")
--------------------------------------------------------------------------

    Molecular point group: cs
  Charge       = 0
  Multiplicity = 1
  Basis Set: CC-PV(Q+D)Z
    Blend: CC-PV(Q+D)Z
  Basis Set: (CC-PV(Q+D)Z AUX)
    Blend: CC-PVQZ-JKFIT
  @DF-RKS Final Energy:  -535.92468318630654
    Total Energy =                       -535.9246831863065381
    Molecular point group: cs
  Basis Set: CC-PV(Q+D)Z
    Blend: CC-PV(Q+D)Z
  Basis Set: (CC-PV(Q+D)Z AUX)
    Blend: CC-PVQZ-JKFIT
  @DF-RKS Final Energy:  -535.92469820315250
    Total Energy =                       -535.9246982031526159
  Basis Set: CC-PV(Q+D)Z
    Blend: CC-PV(Q+D)Z
  Basis Set: (CC-PV(Q+D)Z AUX)
    Blend: CC-PVQZ-JKFIT
  @DF-RKS Final Energy:  -535.92466757268517
    Total Energy =                       -535.9246675726850526
  Basis Set: CC-PV(Q+D)Z
    Blend: CC-PV(Q+D)Z
  Basis Set: (CC-PV(Q+D)Z AUX)
    Blend: CC-PVQZ-JKFIT
  @DF-RKS Final Energy:  -535.92467880684342
    Total Energy =                       -535.9246788068434171
  @DF-RKS Final Energy:  -535.92467812528480
    Total Energy =                       -535.9246781252846858
  @DF-RKS Final Energy:  -535.92467553856545
    Total Energy =                       -535.9246755385654524
  @DF-RKS Final Energy:  -535.92468483465234
    Total Energy =                       -535.9246848346523393
  @DF-RKS Final Energy:  -535.92485064032405
    Total Energy =                       -535.9248506403240526
  @DF-RKS Final Energy:  -535.92485581873461
    Total Energy =                       -535.9248558187346134
  @DF-RKS Final Energy:  -535.92484482878285
    Total Energy =                       -535.9248448287827387
  @DF-RKS Final Energy:  -535.92484393481345
    Total Energy =                       -535.9248439348133388
  @DF-RKS Final Energy:  -535.92484806175116
    Total Energy =                       -535.9248480617511632
  @DF-RKS Final Energy:  -535.92484648504580
    Total Energy =                       -535.9248464850458049
  @DF-RKS Final Energy:  -535.92484868674637
    Total Energy =                       -535.9248486867462589
  @DF-RKS Final Energy:  -535.92487445060272
    Total Energy =                       -535.9248744506027151
  @DF-RKS Final Energy:  -535.92487385761160
    Total Energy =                       -535.9248738576116011
  @DF-RKS Final Energy:  -535.92487439067554
    Total Energy =                       -535.9248743906755408
  @DF-RKS Final Energy:  -535.92486993111322
    Total Energy =                       -535.9248699311131077
  @DF-RKS Final Energy:  -535.92486975747613
    Total Energy =                       -535.9248697574762446
  @DF-RKS Final Energy:  -535.92487176784618
    Total Energy =                       -535.9248717678461844
  **** Optimization is complete! (in 3 steps) ****
    Final optimized geometry and variables:
  @DF-RKS Final Energy:  -535.92487445060328
    Total Energy =                       -535.9248744506032835
  @DF-RKS Final Energy:  -535.92487385766140
    Total Energy =                       -535.9248738576613960
  @DF-RKS Final Energy:  -535.92487439071294
    Total Energy =                       -535.9248743907129438
  @DF-RKS Final Energy:  -535.92486993104774
    Total Energy =                       -535.9248699310478514
  @DF-RKS Final Energy:  -535.92486975747602
    Total Energy =                       -535.9248697574761309
  @DF-RKS Final Energy:  -535.92487176778070
    Total Energy =                       -535.9248717677807008
  @DF-RKS Final Energy:  -535.92487093291879
    Total Energy =                       -535.9248709329186795
  @DF-RKS Final Energy:  -535.92487445060362
    Total Energy =                       -535.9248744506036246
  @DF-RKS Final Energy:  -535.92487385766196
    Total Energy =                       -535.9248738576619644
  @DF-RKS Final Energy:  -535.92487439071351
    Total Energy =                       -535.9248743907133985
  @DF-RKS Final Energy:  -535.92486993104842
    Total Energy =                       -535.9248699310484199
  @DF-RKS Final Energy:  -535.92486975747647
    Total Energy =                       -535.9248697574764719
  @DF-RKS Final Energy:  -535.92487176778195
    Total Energy =                       -535.9248717677818377
  @DF-RKS Final Energy:  -535.92487093291879
    Total Energy =                       -535.9248709329187932
  @DF-RKS Final Energy:  -535.92486967485627
    Total Energy =                       -535.9248696748562679
  @DF-RKS Final Energy:  -535.92486932261181
    Total Energy =                       -535.9248693226118121
  Basis Set: CC-PV(Q+D)Z
    Blend: CC-PV(Q+D)Z
  Basis Set: (CC-PV(Q+D)Z AUX)
    Blend: CC-PVQZ-JKFIT
  @DF-RKS Final Energy:  -535.92487112248682
    Total Energy =                       -535.9248711224868202
  Basis Set: CC-PV(Q+D)Z
    Blend: CC-PV(Q+D)Z
  Basis Set: (CC-PV(Q+D)Z AUX)
    Blend: CC-PVQZ-JKFIT
  @DF-RKS Final Energy:  -535.92487141716560
    Total Energy =                       -535.9248714171656047
  Multiplicity = 1
  Basis Set: CC-PV(Q+D)Z
    Blend: CC-PV(Q+D)Z
  Basis Set: (CC-PV(Q+D)Z AUX)
    Blend: CC-PVQZ-JKFIT
  @DF-RKS Final Energy:  -535.92487224069328
    Total Energy =                       -535.9248722406931620
    Molecular point group: cs

    Geometry (in Angstrom), charge = 0, multiplicity = 1:

       Center              X                  Y                   Z               Mass
    ------------   -----------------  -----------------  -----------------  -----------------
         O            1.097895131284     0.231969076555     0.000000000000    15.994914619570
         H            1.112290457349     1.196429310319     0.000000000000     1.007825032230
         CL          -0.534239233470    -0.140585595610     0.000000000000    34.968852682000

  Charge       = 0
  Multiplicity = 1
  Basis Set: CC-PV(Q+D)Z
    Blend: CC-PV(Q+D)Z
  Basis Set: (CC-PV(Q+D)Z AUX)
    Blend: CC-PVQZ-JKFIT

    Orbital Energies [Eh]
    ---------------------

    Doubly Occupied:

       1Ap  -101.594155     2Ap   -19.283729     3Ap    -9.606335
       4Ap    -7.367096     5Ap    -7.351793     1App   -7.351431
       6Ap    -1.210062     7Ap    -0.926286     8Ap    -0.650146
       9Ap    -0.557372     2App   -0.532529    10Ap    -0.424861
       3App   -0.390512

  @DF-RKS Final Energy:  -535.92487321454655

   => Energetics <=

    Nuclear Repulsion Energy =             51.6190709550981808
    One-Electron Energy =                -841.8015559178013518
    Two-Electron Energy =                 281.8281198860568679
    DFT Exchange-Correlation Energy =     -27.6792077552792151
    Empirical Dispersion Energy =           0.0000000000000000
    VV10 Nonlocal Energy =                  0.1086996173789427
    Total Energy =                       -535.9248732145465510

  Dipole Moment: [D]
     X:    -0.0025      Y:     1.5684      Z:     0.0000     Total:     1.5684

  Vibration                       7                   8                   9
  Freq [cm^-1]                 806.0795           1289.1700           3830.1186
  Irrep                           Ap                  Ap                  Ap
  Reduced mass [u]             17.5061              1.0740              1.0678
  Force const [mDyne/A]         6.7019              1.0516              9.2294

  ==> Thermochemistry Components <==

  Entropy, S
    Electronic S            0.000 [cal/(mol K)]        0.000 [J/(mol K)]       0.00000000 [mEh/K] (multiplicity = 1)
    Translational S        37.767 [cal/(mol K)]      158.018 [J/(mol K)]       0.06018576 [mEh/K] (mol. weight = 51.9716 [u], P = 101325.00 [Pa])
    Rotational S           18.347 [cal/(mol K)]       76.765 [J/(mol K)]       0.02923829 [mEh/K] (symmetry no. = 1)
    Vibrational S           0.231 [cal/(mol K)]        0.966 [J/(mol K)]       0.00036809 [mEh/K]
  Total S                  56.345 [cal/(mol K)]      235.749 [J/(mol K)]       0.08979214 [mEh/K]
  Correction S              0.000 [cal/(mol K)]        0.000 [J/(mol K)]       0.00000000 [mEh/K]

  Constant volume heat capacity, Cv
    Electronic Cv           0.000 [cal/(mol K)]        0.000 [J/(mol K)]       0.00000000 [mEh/K]
    Translational Cv        2.981 [cal/(mol K)]       12.472 [J/(mol K)]       0.00475022 [mEh/K]
    Rotational Cv           2.981 [cal/(mol K)]       12.472 [J/(mol K)]       0.00475022 [mEh/K]
    Vibrational Cv          0.794 [cal/(mol K)]        3.323 [J/(mol K)]       0.00126565 [mEh/K]
  Total Cv                  6.756 [cal/(mol K)]       28.266 [J/(mol K)]       0.01076609 [mEh/K]
  Correction Cv             0.000 [cal/(mol K)]        0.000 [J/(mol K)]       0.00000000 [mEh/K]

  Constant pressure heat capacity, Cp
    Electronic Cp           0.000 [cal/(mol K)]        0.000 [J/(mol K)]       0.00000000 [mEh/K]
    Translational Cp        4.968 [cal/(mol K)]       20.786 [J/(mol K)]       0.00791703 [mEh/K]
    Rotational Cp           2.981 [cal/(mol K)]       12.472 [J/(mol K)]       0.00475022 [mEh/K]
    Vibrational Cp          0.794 [cal/(mol K)]        3.323 [J/(mol K)]       0.00126565 [mEh/K]
  Total Cp                  8.743 [cal/(mol K)]       36.581 [J/(mol K)]       0.01393290 [mEh/K]
  Correction Cp             0.000 [cal/(mol K)]        0.000 [J/(mol K)]       0.00000000 [mEh/K]

  ==> Thermochemistry Energy Analysis <==

  Raw electronic energy, E0
  Total E0, Electronic energy at well bottom at 0 [K]                 -535.92487445 [Eh]

  Zero-point energy, ZPE_vib = Sum_i nu_i / 2
    Electronic ZPE          0.000 [kcal/mol]        0.000 [kJ/mol]       0.00000000 [Eh]
    Translational ZPE       0.000 [kcal/mol]        0.000 [kJ/mol]       0.00000000 [Eh]
    Rotational ZPE          0.000 [kcal/mol]        0.000 [kJ/mol]       0.00000000 [Eh]
    Vibrational ZPE         8.471 [kcal/mol]       35.442 [kJ/mol]       0.01349898 [Eh]        2962.684 [cm^-1]
  Correction ZPE            8.471 [kcal/mol]       35.442 [kJ/mol]       0.01349898 [Eh]        2962.684 [cm^-1]
  Total ZPE, Electronic energy at 0 [K]                               -535.91137547 [Eh]

  Thermal Energy, E (includes ZPE)
    Electronic E            0.000 [kcal/mol]        0.000 [kJ/mol]       0.00000000 [Eh]
    Translational E         0.889 [kcal/mol]        3.718 [kJ/mol]       0.00141628 [Eh]
    Rotational E            0.889 [kcal/mol]        3.718 [kJ/mol]       0.00141628 [Eh]
    Vibrational E           8.526 [kcal/mol]       35.674 [kJ/mol]       0.01358734 [Eh]
  Correction E             10.304 [kcal/mol]       43.110 [kJ/mol]       0.01641990 [Eh]
  Total E, Electronic energy at  298.15 [K]                           -535.90845455 [Eh]

  Enthalpy, H_trans = E_trans + k_B * T
    Electronic H            0.000 [kcal/mol]        0.000 [kJ/mol]       0.00000000 [Eh]
    Translational H         1.481 [kcal/mol]        6.197 [kJ/mol]       0.00236046 [Eh]
    Rotational H            0.889 [kcal/mol]        3.718 [kJ/mol]       0.00141628 [Eh]
    Vibrational H           8.526 [kcal/mol]       35.674 [kJ/mol]       0.01358734 [Eh]
  Correction H             10.896 [kcal/mol]       45.589 [kJ/mol]       0.01736408 [Eh]
  Total H, Enthalpy at  298.15 [K]                                    -535.90751037 [Eh]

  Gibbs free energy, G = H - T * S
    Electronic G            0.000 [kcal/mol]        0.000 [kJ/mol]       0.00000000 [Eh]
    Translational G        -9.779 [kcal/mol]      -40.916 [kJ/mol]      -0.01558392 [Eh]
    Rotational G           -4.582 [kcal/mol]      -19.169 [kJ/mol]      -0.00730112 [Eh]
    Vibrational G           8.457 [kcal/mol]       35.385 [kJ/mol]       0.01347760 [Eh]
  Correction G             -5.903 [kcal/mol]      -24.699 [kJ/mol]      -0.00940745 [Eh]
  Total G, Free enthalpy at  298.15 [K]                               -535.93428190 [Eh]

*** Psi4 exiting successfully. Buy a developer a beer!
