                               Psi4 1.3.2 release

  ==> Input File <==

--------------------------------------------------------------------------
memory 144 GB

molecule {
0 1
N 0.0000000000 0.0000000000 0.0000000000
N 0.0000000000 0.0000000000 1.1003000000
}

set dynamic_level 1
set basis cc-pV(Q+d)Z

optimize("wB97X-V")
frequencies("wB97X-V")
--------------------------------------------------------------------------

    Molecular point group: d2h
  Charge       = 0
  Multiplicity = 1
  Basis Set: CC-PV(Q+D)Z
    Blend: CC-PV(Q+D)Z
  Basis Set: (CC-PV(Q+D)Z AUX)
    Blend: CC-PVQZ-JKFIT
  @DF-RKS Final Energy:  -109.54291211922586
    Total Energy =                       -109.5429121192258606
    Molecular point group: d2h
  Basis Set: CC-PV(Q+D)Z
    Blend: CC-PV(Q+D)Z
  Basis Set: (CC-PV(Q+D)Z AUX)
    Blend: CC-PVQZ-JKFIT
  @DF-RKS Final Energy:  -109.54285320516142
    Total Energy =                       -109.5428532051614212
  Basis Set: CC-PV(Q+D)Z
    Blend: CC-PV(Q+D)Z
  Basis Set: (CC-PV(Q+D)Z AUX)
    Blend: CC-PVQZ-JKFIT
  @DF-RKS Final Energy:  -109.54296556760065
    Total Energy =                       -109.5429655676006320
  Basis Set: CC-PV(Q+D)Z
    Blend: CC-PV(Q+D)Z
  Basis Set: (CC-PV(Q+D)Z AUX)
    Blend: CC-PVQZ-JKFIT
  @DF-RKS Final Energy:  -109.54319130293375
    Total Energy =                       -109.5431913029337494
  @DF-RKS Final Energy:  -109.54318248437008
    Total Energy =                       -109.5431824843700781
  @DF-RKS Final Energy:  -109.54319430741978
    Total Energy =                       -109.5431943074197818
  @DF-RKS Final Energy:  -109.54319430469258
    Total Energy =                       -109.5431943046925767
  @DF-RKS Final Energy:  -109.54319158301901
    Total Energy =                       -109.5431915830190093
  @DF-RKS Final Energy:  -109.54319116984595
    Total Energy =                       -109.5431911698459686
  **** Optimization is complete! (in 3 steps) ****
    Final optimized geometry and variables:
  @DF-RKS Final Energy:  -109.54319430469273
    Total Energy =                       -109.5431943046927330
  @DF-RKS Final Energy:  -109.54319158301897
    Total Energy =                       -109.5431915830189666
  Basis Set: CC-PV(Q+D)Z
    Blend: CC-PV(Q+D)Z
  Basis Set: (CC-PV(Q+D)Z AUX)
    Blend: CC-PVQZ-JKFIT
  @DF-RKS Final Energy:  -109.54319116984593
    Total Energy =                       -109.5431911698459260
  Basis Set: CC-PV(Q+D)Z
    Blend: CC-PV(Q+D)Z
  Basis Set: (CC-PV(Q+D)Z AUX)
    Blend: CC-PVQZ-JKFIT
  @DF-RKS Final Energy:  -109.54319430469263
    Total Energy =                       -109.5431943046926335
  Multiplicity = 1
  Basis Set: CC-PV(Q+D)Z
    Blend: CC-PV(Q+D)Z
  Basis Set: (CC-PV(Q+D)Z AUX)
    Blend: CC-PVQZ-JKFIT
  @DF-RKS Final Energy:  -109.54319158301908
    Total Energy =                       -109.5431915830190803
    Molecular point group: d2h

    Geometry (in Angstrom), charge = 0, multiplicity = 1:

       Center              X                  Y                   Z               Mass
    ------------   -----------------  -----------------  -----------------  -----------------
         N            0.000000000000     0.000000000000    -0.544667972907    14.003074004430
         N            0.000000000000     0.000000000000     0.544667972907    14.003074004430

  Charge       = 0
  Multiplicity = 1
  Basis Set: CC-PV(Q+D)Z
    Blend: CC-PV(Q+D)Z
  Basis Set: (CC-PV(Q+D)Z AUX)
    Blend: CC-PVQZ-JKFIT

    Orbital Energies [Eh]
    ---------------------

    Doubly Occupied:

       1Ag   -14.506951     1B1u  -14.505044     2Ag    -1.259083
       2B1u   -0.670784     1B3u   -0.579868     1B2u   -0.579868
       3Ag    -0.545298

  @DF-RKS Final Energy:  -109.54319116984588

   => Energetics <=

    Nuclear Repulsion Energy =             23.8032017785224035
    One-Electron Energy =                -194.8767451828465767
    Two-Electron Energy =                  71.1725522977802285
    DFT Exchange-Correlation Energy =      -9.7011484969175790
    Empirical Dispersion Energy =           0.0000000000000000
    VV10 Nonlocal Energy =                  0.0589484336156336
    Total Energy =                       -109.5431911698458833

  Dipole Moment: [D]
     X:     0.0000      Y:     0.0000      Z:    -0.0000     Total:     0.0000

  Vibration                       6
  Freq [cm^-1]                2488.0213
  Irrep                           Ag
  Reduced mass [u]             14.0031
  Force const [mDyne/A]        51.0719

  ==> Thermochemistry Components <==

  Entropy, S
    Electronic S            0.000 [cal/(mol K)]        0.000 [J/(mol K)]       0.00000000 [mEh/K] (multiplicity = 1)
    Translational S        35.924 [cal/(mol K)]      150.307 [J/(mol K)]       0.05724883 [mEh/K] (mol. weight = 28.0061 [u], P = 101325.00 [Pa])
    Rotational S            9.807 [cal/(mol K)]       41.031 [J/(mol K)]       0.01562806 [mEh/K] (symmetry no. = 2)
    Vibrational S           0.000 [cal/(mol K)]        0.001 [J/(mol K)]       0.00000025 [mEh/K]
  Total S                  45.731 [cal/(mol K)]      191.339 [J/(mol K)]       0.07287714 [mEh/K]
  Correction S              0.000 [cal/(mol K)]        0.000 [J/(mol K)]       0.00000000 [mEh/K]

  Constant volume heat capacity, Cv
    Electronic Cv           0.000 [cal/(mol K)]        0.000 [J/(mol K)]       0.00000000 [mEh/K]
    Translational Cv        2.981 [cal/(mol K)]       12.472 [J/(mol K)]       0.00475022 [mEh/K]
    Rotational Cv           1.987 [cal/(mol K)]        8.314 [J/(mol K)]       0.00316681 [mEh/K]
    Vibrational Cv          0.002 [cal/(mol K)]        0.007 [J/(mol K)]       0.00000279 [mEh/K]
  Total Cv                  4.970 [cal/(mol K)]       20.793 [J/(mol K)]       0.00791981 [mEh/K]
  Correction Cv             0.000 [cal/(mol K)]        0.000 [J/(mol K)]       0.00000000 [mEh/K]

  Constant pressure heat capacity, Cp
    Electronic Cp           0.000 [cal/(mol K)]        0.000 [J/(mol K)]       0.00000000 [mEh/K]
    Translational Cp        4.968 [cal/(mol K)]       20.786 [J/(mol K)]       0.00791703 [mEh/K]
    Rotational Cp           1.987 [cal/(mol K)]        8.314 [J/(mol K)]       0.00316681 [mEh/K]
    Vibrational Cp          0.002 [cal/(mol K)]        0.007 [J/(mol K)]       0.00000279 [mEh/K]
  Total Cp                  6.957 [cal/(mol K)]       29.108 [J/(mol K)]       0.01108662 [mEh/K]
  Correction Cp             0.000 [cal/(mol K)]        0.000 [J/(mol K)]       0.00000000 [mEh/K]

  ==> Thermochemistry Energy Analysis <==

  Raw electronic energy, E0
  Total E0, Electronic energy at well bottom at 0 [K]                 -109.54319430 [Eh]

  Zero-point energy, ZPE_vib = Sum_i nu_i / 2
    Electronic ZPE          0.000 [kcal/mol]        0.000 [kJ/mol]       0.00000000 [Eh]
    Translational ZPE       0.000 [kcal/mol]        0.000 [kJ/mol]       0.00000000 [Eh]
    Rotational ZPE          0.000 [kcal/mol]        0.000 [kJ/mol]       0.00000000 [Eh]
    Vibrational ZPE         3.557 [kcal/mol]       14.882 [kJ/mol]       0.00566813 [Eh]        1244.011 [cm^-1]
  Correction ZPE            3.557 [kcal/mol]       14.882 [kJ/mol]       0.00566813 [Eh]        1244.011 [cm^-1]
  Total ZPE, Electronic energy at 0 [K]                               -109.53752618 [Eh]

  Thermal Energy, E (includes ZPE)
    Electronic E            0.000 [kcal/mol]        0.000 [kJ/mol]       0.00000000 [Eh]
    Translational E         0.889 [kcal/mol]        3.718 [kJ/mol]       0.00141628 [Eh]
    Rotational E            0.592 [kcal/mol]        2.479 [kJ/mol]       0.00094418 [Eh]
    Vibrational E           3.557 [kcal/mol]       14.882 [kJ/mol]       0.00566820 [Eh]
  Correction E              5.038 [kcal/mol]       21.079 [kJ/mol]       0.00802866 [Eh]
  Total E, Electronic energy at  298.15 [K]                           -109.53516564 [Eh]

  Enthalpy, H_trans = E_trans + k_B * T
    Electronic H            0.000 [kcal/mol]        0.000 [kJ/mol]       0.00000000 [Eh]
    Translational H         1.481 [kcal/mol]        6.197 [kJ/mol]       0.00236046 [Eh]
    Rotational H            0.592 [kcal/mol]        2.479 [kJ/mol]       0.00094418 [Eh]
    Vibrational H           3.557 [kcal/mol]       14.882 [kJ/mol]       0.00566820 [Eh]
  Correction H              5.631 [kcal/mol]       23.558 [kJ/mol]       0.00897284 [Eh]
  Total H, Enthalpy at  298.15 [K]                                    -109.53422146 [Eh]

  Gibbs free energy, G = H - T * S
    Electronic G            0.000 [kcal/mol]        0.000 [kJ/mol]       0.00000000 [Eh]
    Translational G        -9.230 [kcal/mol]      -38.617 [kJ/mol]      -0.01470828 [Eh]
    Rotational G           -2.331 [kcal/mol]       -9.755 [kJ/mol]      -0.00371532 [Eh]
    Vibrational G           3.557 [kcal/mol]       14.882 [kJ/mol]       0.00566812 [Eh]
  Correction G             -8.004 [kcal/mol]      -33.489 [kJ/mol]      -0.01275548 [Eh]
  Total G, Free enthalpy at  298.15 [K]                               -109.55594978 [Eh]

*** Psi4 exiting successfully. Buy a developer a beer!
