                               Psi4 1.3.2 release

  ==> Input File <==

--------------------------------------------------------------------------
memory 144 GB

molecule {
0 1
N 0.0000000000 0.0000000000 0.0000000000
H 0.0000000000 0.0000000000 1.0124000000
H 0.9722998620 0.0000000000 -0.2821112163
H -0.3756003142 0.8968229622 -0.2821112163
}

set dynamic_level 1
set basis cc-pV(Q+d)Z

optimize("wB97X-V")
frequencies("wB97X-V")
--------------------------------------------------------------------------

    Molecular point group: cs
  Charge       = 0
  Multiplicity = 1
  Basis Set: CC-PV(Q+D)Z
    Blend: CC-PV(Q+D)Z
  Basis Set: (CC-PV(Q+D)Z AUX)
    Blend: CC-PVQZ-JKFIT
  @DF-RKS Final Energy:   -56.56487927434812
    Total Energy =                        -56.5648792743481081
    Molecular point group: cs
  Basis Set: CC-PV(Q+D)Z
    Blend: CC-PV(Q+D)Z
  Basis Set: (CC-PV(Q+D)Z AUX)
    Blend: CC-PVQZ-JKFIT
  @DF-RKS Final Energy:   -56.56487378268519
    Total Energy =                        -56.5648737826851900
  Basis Set: CC-PV(Q+D)Z
    Blend: CC-PV(Q+D)Z
  Basis Set: (CC-PV(Q+D)Z AUX)
    Blend: CC-PVQZ-JKFIT
  @DF-RKS Final Energy:   -56.56487924897949
    Total Energy =                        -56.5648792489794872
  Basis Set: CC-PV(Q+D)Z
    Blend: CC-PV(Q+D)Z
  Basis Set: (CC-PV(Q+D)Z AUX)
    Blend: CC-PVQZ-JKFIT
  @DF-RKS Final Energy:   -56.56487378903388
    Total Energy =                        -56.5648737890338751
  @DF-RKS Final Energy:   -56.56487959385137
    Total Energy =                        -56.5648795938513658
  @DF-RKS Final Energy:   -56.56486742959559
    Total Energy =                        -56.5648674295955871
  @DF-RKS Final Energy:   -56.56488250634327
    Total Energy =                        -56.5648825063432739
  @DF-RKS Final Energy:   -56.56486742141935
    Total Energy =                        -56.5648674214193505
  @DF-RKS Final Energy:   -56.56488251415604
    Total Energy =                        -56.5648825141560394
  @DF-RKS Final Energy:   -56.56490496037366
    Total Energy =                        -56.5649049603736600
  @DF-RKS Final Energy:   -56.56489994968924
    Total Energy =                        -56.5648999496892344
  @DF-RKS Final Energy:   -56.56490451484493
    Total Energy =                        -56.5649045148449261
  @DF-RKS Final Energy:   -56.56489999549161
    Total Energy =                        -56.5648999954916150
  @DF-RKS Final Energy:   -56.56490485322799
    Total Energy =                        -56.5649048532279934
  @DF-RKS Final Energy:   -56.56490338927404
    Total Energy =                        -56.5649033892740363
  @DF-RKS Final Energy:   -56.56489794863267
    Total Energy =                        -56.5648979486326695
  @DF-RKS Final Energy:   -56.56490339071602
    Total Energy =                        -56.5649033907160188
  @DF-RKS Final Energy:   -56.56489794676381
    Total Energy =                        -56.5648979467638000
  @DF-RKS Final Energy:   -56.56490741294706
    Total Energy =                        -56.5649074129470577
  @DF-RKS Final Energy:   -56.56490411560854
    Total Energy =                        -56.5649041156085417
  **** Optimization is complete! (in 3 steps) ****
    Final optimized geometry and variables:
  @DF-RKS Final Energy:   -56.56490402259376
    Total Energy =                        -56.5649040225937583
  @DF-RKS Final Energy:   -56.56490218534120
    Total Energy =                        -56.5649021853411895
  @DF-RKS Final Energy:   -56.56490402341751
    Total Energy =                        -56.5649040234175118
  @DF-RKS Final Energy:   -56.56490218417981
    Total Energy =                        -56.5649021841798074
  @DF-RKS Final Energy:   -56.56490637370359
    Total Energy =                        -56.5649063737036002
  @DF-RKS Final Energy:   -56.56490400901620
    Total Energy =                        -56.5649040090161961
  @DF-RKS Final Energy:   -56.56489915187396
    Total Energy =                        -56.5648991518739592
  @DF-RKS Final Energy:   -56.56489981076717
    Total Energy =                        -56.5648998107671659
  @DF-RKS Final Energy:   -56.56490429484261
    Total Energy =                        -56.5649042948426128
  @DF-RKS Final Energy:   -56.56490494498868
    Total Energy =                        -56.5649049449886760
  @DF-RKS Final Energy:   -56.56490410762441
    Total Energy =                        -56.5649041076244075
  @DF-RKS Final Energy:   -56.56490483564378
    Total Energy =                        -56.5649048356437802
  @DF-RKS Final Energy:   -56.56489962775701
    Total Energy =                        -56.5648996277570077
  @DF-RKS Final Energy:   -56.56490026048636
    Total Energy =                        -56.5649002604863611
  @DF-RKS Final Energy:   -56.56489512925440
    Total Energy =                        -56.5648951292544027
  @DF-RKS Final Energy:   -56.56489877402100
    Total Energy =                        -56.5648987740210032
  Basis Set: CC-PV(Q+D)Z
    Blend: CC-PV(Q+D)Z
  Basis Set: (CC-PV(Q+D)Z AUX)
    Blend: CC-PVQZ-JKFIT
  @DF-RKS Final Energy:   -56.56490325451941
    Total Energy =                        -56.5649032545194146
  Basis Set: CC-PV(Q+D)Z
    Blend: CC-PV(Q+D)Z
  Basis Set: (CC-PV(Q+D)Z AUX)
    Blend: CC-PVQZ-JKFIT
  @DF-RKS Final Energy:   -56.56490456214079
    Total Energy =                        -56.5649045621407964
  Multiplicity = 1
  Basis Set: CC-PV(Q+D)Z
    Blend: CC-PV(Q+D)Z
  Basis Set: (CC-PV(Q+D)Z AUX)
    Blend: CC-PVQZ-JKFIT
  @DF-RKS Final Energy:   -56.56490523815334
    Total Energy =                        -56.5649052381533366
    Molecular point group: c1

    Geometry (in Angstrom), charge = 0, multiplicity = 1:

       Center              X                  Y                   Z               Mass
    ------------   -----------------  -----------------  -----------------  -----------------
         N           -0.043056341003    -0.051743075754    -0.000264612033    14.003074004430
         H            0.559967163867    -0.059265133791     0.813945525571     1.007825032230
         H            0.560897216566    -0.062267908720    -0.813016113337     1.007825032230
         H           -0.522624497376     0.840469460867     0.002747200034     1.007825032230

  Charge       = 0
  Multiplicity = 1
  Basis Set: CC-PV(Q+D)Z
    Blend: CC-PV(Q+D)Z
  Basis Set: (CC-PV(Q+D)Z AUX)
    Blend: CC-PVQZ-JKFIT

    Orbital Energies [Eh]
    ---------------------

    Doubly Occupied:

       1A    -14.381221     2A     -0.979231     3A     -0.569407
       4A     -0.568247     5A     -0.375020

  @DF-RKS Final Energy:   -56.56490523819316

   => Energetics <=

    Nuclear Repulsion Energy =             11.9465929473670602
    One-Electron Energy =                 -99.6784780326727429
    Two-Electron Energy =                  36.5956225648702258
    DFT Exchange-Correlation Energy =      -5.4704934298854830
    Empirical Dispersion Energy =           0.0000000000000000
    VV10 Nonlocal Energy =                  0.0418507121277819
    Total Energy =                        -56.5649052381931483

  Dipole Moment: [D]
     X:     1.0056      Y:     1.2085      Z:     0.0025     Total:     1.5721

  Vibration                       7                   8                   9
  Freq [cm^-1]                1051.6737           1454.3344           1673.0370
  Irrep                           Ap                 App                  Ap
  Reduced mass [u]              1.1809              1.0587              1.0662
  Force const [mDyne/A]         0.7696              1.3193              1.7584

  Vibration                       10                  11                  12
  Freq [cm^-1]                3506.1105           3564.0202           3626.3029
  Irrep                           Ap                 App                  Ap
  Reduced mass [u]              1.0265              1.0978              1.0898
  Force const [mDyne/A]         7.4347              8.2158              8.4434

  ==> Thermochemistry Components <==

  Entropy, S
    Electronic S            0.000 [cal/(mol K)]        0.000 [J/(mol K)]       0.00000000 [mEh/K] (multiplicity = 1)
    Translational S        34.441 [cal/(mol K)]      144.100 [J/(mol K)]       0.05488488 [mEh/K] (mol. weight = 17.0265 [u], P = 101325.00 [Pa])
    Rotational S           13.616 [cal/(mol K)]       56.970 [J/(mol K)]       0.02169866 [mEh/K] (symmetry no. = 1)
    Vibrational S           0.096 [cal/(mol K)]        0.401 [J/(mol K)]       0.00015267 [mEh/K]
  Total S                  48.153 [cal/(mol K)]      201.471 [J/(mol K)]       0.07673621 [mEh/K]
  Correction S              0.000 [cal/(mol K)]        0.000 [J/(mol K)]       0.00000000 [mEh/K]

  Constant volume heat capacity, Cv
    Electronic Cv           0.000 [cal/(mol K)]        0.000 [J/(mol K)]       0.00000000 [mEh/K]
    Translational Cv        2.981 [cal/(mol K)]       12.472 [J/(mol K)]       0.00475022 [mEh/K]
    Rotational Cv           2.981 [cal/(mol K)]       12.472 [J/(mol K)]       0.00475022 [mEh/K]
    Vibrational Cv          0.452 [cal/(mol K)]        1.892 [J/(mol K)]       0.00072068 [mEh/K]
  Total Cv                  6.414 [cal/(mol K)]       26.836 [J/(mol K)]       0.01022111 [mEh/K]
  Correction Cv             0.000 [cal/(mol K)]        0.000 [J/(mol K)]       0.00000000 [mEh/K]

  Constant pressure heat capacity, Cp
    Electronic Cp           0.000 [cal/(mol K)]        0.000 [J/(mol K)]       0.00000000 [mEh/K]
    Translational Cp        4.968 [cal/(mol K)]       20.786 [J/(mol K)]       0.00791703 [mEh/K]
    Rotational Cp           2.981 [cal/(mol K)]       12.472 [J/(mol K)]       0.00475022 [mEh/K]
    Vibrational Cp          0.452 [cal/(mol K)]        1.892 [J/(mol K)]       0.00072068 [mEh/K]
  Total Cp                  8.401 [cal/(mol K)]       35.150 [J/(mol K)]       0.01338792 [mEh/K]
  Correction Cp             0.000 [cal/(mol K)]        0.000 [J/(mol K)]       0.00000000 [mEh/K]

  ==> Thermochemistry Energy Analysis <==

  Raw electronic energy, E0
  Total E0, Electronic energy at well bottom at 0 [K]                  -56.56490741 [Eh]

  Zero-point energy, ZPE_vib = Sum_i nu_i / 2
    Electronic ZPE          0.000 [kcal/mol]        0.000 [kJ/mol]       0.00000000 [Eh]
    Translational ZPE       0.000 [kcal/mol]        0.000 [kJ/mol]       0.00000000 [Eh]
    Rotational ZPE          0.000 [kcal/mol]        0.000 [kJ/mol]       0.00000000 [Eh]
    Vibrational ZPE        21.266 [kcal/mol]       88.975 [kJ/mol]       0.03388883 [Eh]        7437.739 [cm^-1]
  Correction ZPE           21.266 [kcal/mol]       88.975 [kJ/mol]       0.03388883 [Eh]        7437.739 [cm^-1]
  Total ZPE, Electronic energy at 0 [K]                                -56.53101858 [Eh]

  Thermal Energy, E (includes ZPE)
    Electronic E            0.000 [kcal/mol]        0.000 [kJ/mol]       0.00000000 [Eh]
    Translational E         0.889 [kcal/mol]        3.718 [kJ/mol]       0.00141628 [Eh]
    Rotational E            0.889 [kcal/mol]        3.718 [kJ/mol]       0.00141628 [Eh]
    Vibrational E          21.290 [kcal/mol]       89.076 [kJ/mol]       0.03392729 [Eh]
  Correction E             23.067 [kcal/mol]       96.513 [kJ/mol]       0.03675985 [Eh]
  Total E, Electronic energy at  298.15 [K]                            -56.52814757 [Eh]

  Enthalpy, H_trans = E_trans + k_B * T
    Electronic H            0.000 [kcal/mol]        0.000 [kJ/mol]       0.00000000 [Eh]
    Translational H         1.481 [kcal/mol]        6.197 [kJ/mol]       0.00236046 [Eh]
    Rotational H            0.889 [kcal/mol]        3.718 [kJ/mol]       0.00141628 [Eh]
    Vibrational H          21.290 [kcal/mol]       89.076 [kJ/mol]       0.03392729 [Eh]
  Correction H             23.660 [kcal/mol]       98.992 [kJ/mol]       0.03770403 [Eh]
  Total H, Enthalpy at  298.15 [K]                                     -56.52720338 [Eh]

  Gibbs free energy, G = H - T * S
    Electronic G            0.000 [kcal/mol]        0.000 [kJ/mol]       0.00000000 [Eh]
    Translational G        -8.787 [kcal/mol]      -36.766 [kJ/mol]      -0.01400347 [Eh]
    Rotational G           -3.171 [kcal/mol]      -13.267 [kJ/mol]      -0.00505318 [Eh]
    Vibrational G          21.261 [kcal/mol]       88.957 [kJ/mol]       0.03388177 [Eh]
  Correction G              9.303 [kcal/mol]       38.923 [kJ/mol]       0.01482513 [Eh]
  Total G, Free enthalpy at  298.15 [K]                                -56.55008228 [Eh]

*** Psi4 exiting successfully. Buy a developer a beer!
