                               Psi4 1.3.2 release

  ==> Input File <==

--------------------------------------------------------------------------
memory 144 GB

molecule {
0 1
N 0.0000000000 0.0000000000 0.0000000000
N 0.0000000000 0.0000000000 1.1291000000
O 0.0000000000 -0.0000000000 2.3161000000
}

set dynamic_level 1
set basis cc-pV(Q+d)Z

optimize("wB97X-V")
frequencies("wB97X-V")
--------------------------------------------------------------------------

    Molecular point group: c2v
  Charge       = 0
  Multiplicity = 1
  Basis Set: CC-PV(Q+D)Z
    Blend: CC-PV(Q+D)Z
  Basis Set: (CC-PV(Q+D)Z AUX)
    Blend: CC-PVQZ-JKFIT
  @DF-RKS Final Energy:  -184.68425463900846
    Total Energy =                       -184.6842546390084578
    Molecular point group: c2v
  Basis Set: CC-PV(Q+D)Z
    Blend: CC-PV(Q+D)Z
  Basis Set: (CC-PV(Q+D)Z AUX)
    Blend: CC-PVQZ-JKFIT
  @DF-RKS Final Energy:  -184.68419931366782
    Total Energy =                       -184.6841993136677900
  Basis Set: CC-PV(Q+D)Z
    Blend: CC-PV(Q+D)Z
  Basis Set: (CC-PV(Q+D)Z AUX)
    Blend: CC-PVQZ-JKFIT
  @DF-RKS Final Energy:  -184.68430674914887
    Total Energy =                       -184.6843067491488739
  Basis Set: CC-PV(Q+D)Z
    Blend: CC-PV(Q+D)Z
  Basis Set: (CC-PV(Q+D)Z AUX)
    Blend: CC-PVQZ-JKFIT
  @DF-RKS Final Energy:  -184.68426341590074
    Total Energy =                       -184.6842634159007446
  @DF-RKS Final Energy:  -184.68424244003552
    Total Energy =                       -184.6842424400354901
  @DF-RKS Final Energy:  -184.68474046048780
    Total Energy =                       -184.6847404604877738
  @DF-RKS Final Energy:  -184.68473240567272
    Total Energy =                       -184.6847324056727189
  @DF-RKS Final Energy:  -184.68474501371230
    Total Energy =                       -184.6847450137123019
  @DF-RKS Final Energy:  -184.68473986015692
    Total Energy =                       -184.6847398601569239
  @DF-RKS Final Energy:  -184.68473741405120
    Total Energy =                       -184.6847374140511420
  @DF-RKS Final Energy:  -184.68474690782577
    Total Energy =                       -184.6847469078257973
  @DF-RKS Final Energy:  -184.68474543693728
    Total Energy =                       -184.6847454369372770
  @DF-RKS Final Energy:  -184.68474483288801
    Total Energy =                       -184.6847448328880148
  @DF-RKS Final Energy:  -184.68474494440454
    Total Energy =                       -184.6847449444045424
  @DF-RKS Final Energy:  -184.68474518911535
    Total Energy =                       -184.6847451891153469
  **** Optimization is complete! (in 3 steps) ****
    Final optimized geometry and variables:
  @DF-RKS Final Energy:  -184.68474690782682
    Total Energy =                       -184.6847469078268489
  @DF-RKS Final Energy:  -184.68474543689007
    Total Energy =                       -184.6847454368900685
  @DF-RKS Final Energy:  -184.68474483315077
    Total Energy =                       -184.6847448331508019
  @DF-RKS Final Energy:  -184.68474494479551
    Total Energy =                       -184.6847449447955114
  @DF-RKS Final Energy:  -184.68474518897236
    Total Energy =                       -184.6847451889723573
  @DF-RKS Final Energy:  -184.68474690782716
    Total Energy =                       -184.6847469078271615
  @DF-RKS Final Energy:  -184.68474543689041
    Total Energy =                       -184.6847454368904096
  @DF-RKS Final Energy:  -184.68474483315072
    Total Energy =                       -184.6847448331507451
  @DF-RKS Final Energy:  -184.68474494479514
    Total Energy =                       -184.6847449447951703
  @DF-RKS Final Energy:  -184.68474518897261
    Total Energy =                       -184.6847451889726131
  Basis Set: CC-PV(Q+D)Z
    Blend: CC-PV(Q+D)Z
  Basis Set: (CC-PV(Q+D)Z AUX)
    Blend: CC-PVQZ-JKFIT
  @DF-RKS Final Energy:  -184.68474497222283
    Total Energy =                       -184.6847449722228305
  Basis Set: CC-PV(Q+D)Z
    Blend: CC-PV(Q+D)Z
  Basis Set: (CC-PV(Q+D)Z AUX)
    Blend: CC-PVQZ-JKFIT
  @DF-RKS Final Energy:  -184.68474532721604
    Total Energy =                       -184.6847453272160351
  Multiplicity = 1
  Basis Set: CC-PV(Q+D)Z
    Blend: CC-PV(Q+D)Z
  Basis Set: (CC-PV(Q+D)Z AUX)
    Blend: CC-PVQZ-JKFIT
  @DF-RKS Final Energy:  -184.68474671588984
    Total Energy =                       -184.6847467158898439
    Molecular point group: cs

    Geometry (in Angstrom), charge = 0, multiplicity = 1:

       Center              X                  Y                   Z               Mass
    ------------   -----------------  -----------------  -----------------  -----------------
         N            0.000000000000    -0.000299703220    -1.189904892621    14.003074004430
         N            0.000000000000     0.000582980416    -0.074034127325    14.003074004430
         O            0.000000000000    -0.000248000795     1.106541176015    15.994914619570

  Charge       = 0
  Multiplicity = 1
  Basis Set: CC-PV(Q+D)Z
    Blend: CC-PV(Q+D)Z
  Basis Set: (CC-PV(Q+D)Z AUX)
    Blend: CC-PVQZ-JKFIT

    Orbital Energies [Eh]
    ---------------------

    Doubly Occupied:

       1Ap   -19.306652     2Ap   -14.643392     3Ap   -14.506203
       4Ap    -1.384248     5Ap    -1.224062     6Ap    -0.721700
       1App   -0.691168     7Ap    -0.691168     8Ap    -0.596265
       2App   -0.446960     9Ap    -0.446960

  @DF-RKS Final Energy:  -184.68474671619830

   => Energetics <=

    Nuclear Repulsion Energy =             61.2426716109857949
    One-Electron Energy =                -371.8656562324003971
    Two-Electron Energy =                 141.7170028196180738
    DFT Exchange-Correlation Energy =     -15.8699936667033494
    Empirical Dispersion Energy =           0.0000000000000000
    VV10 Nonlocal Energy =                  0.0912287523016059
    Total Energy =                       -184.6847467161982763

  Dipole Moment: [D]
     X:     0.0000      Y:     0.0011      Z:    -0.1520     Total:     0.1520

  Vibration                       6                   7                   8
  Freq [cm^-1]                 636.4726            636.9847           1362.7071
  Irrep                           B2                  B1                  A1
  Reduced mass [u]             14.2525             14.2525             15.1217
  Force const [mDyne/A]         3.4017              3.4072             16.5446

  Vibration                       9
  Freq [cm^-1]                2404.6587
  Irrep                           A1
  Reduced mass [u]             14.0775
  Force const [mDyne/A]        47.9603

  ==> Thermochemistry Components <==

  Entropy, S
    Electronic S            0.000 [cal/(mol K)]        0.000 [J/(mol K)]       0.00000000 [mEh/K] (multiplicity = 1)
    Translational S        37.271 [cal/(mol K)]      155.941 [J/(mol K)]       0.05939493 [mEh/K] (mol. weight = 44.0011 [u], P = 101325.00 [Pa])
    Rotational S           14.278 [cal/(mol K)]       59.739 [J/(mol K)]       0.02275353 [mEh/K] (symmetry no. = 1)
    Vibrational S           0.802 [cal/(mol K)]        3.358 [J/(mol K)]       0.00127883 [mEh/K]
  Total S                  52.351 [cal/(mol K)]      219.038 [J/(mol K)]       0.08342728 [mEh/K]
  Correction S              0.000 [cal/(mol K)]        0.000 [J/(mol K)]       0.00000000 [mEh/K]

  Constant volume heat capacity, Cv
    Electronic Cv           0.000 [cal/(mol K)]        0.000 [J/(mol K)]       0.00000000 [mEh/K]
    Translational Cv        2.981 [cal/(mol K)]       12.472 [J/(mol K)]       0.00475022 [mEh/K]
    Rotational Cv           1.987 [cal/(mol K)]        8.314 [J/(mol K)]       0.00316681 [mEh/K]
    Vibrational Cv          2.033 [cal/(mol K)]        8.504 [J/(mol K)]       0.00323906 [mEh/K]
  Total Cv                  7.001 [cal/(mol K)]       29.290 [J/(mol K)]       0.01115609 [mEh/K]
  Correction Cv             0.000 [cal/(mol K)]        0.000 [J/(mol K)]       0.00000000 [mEh/K]

  Constant pressure heat capacity, Cp
    Electronic Cp           0.000 [cal/(mol K)]        0.000 [J/(mol K)]       0.00000000 [mEh/K]
    Translational Cp        4.968 [cal/(mol K)]       20.786 [J/(mol K)]       0.00791703 [mEh/K]
    Rotational Cp           1.987 [cal/(mol K)]        8.314 [J/(mol K)]       0.00316681 [mEh/K]
    Vibrational Cp          2.033 [cal/(mol K)]        8.504 [J/(mol K)]       0.00323906 [mEh/K]
  Total Cp                  8.988 [cal/(mol K)]       37.605 [J/(mol K)]       0.01432290 [mEh/K]
  Correction Cp             0.000 [cal/(mol K)]        0.000 [J/(mol K)]       0.00000000 [mEh/K]

  ==> Thermochemistry Energy Analysis <==

  Raw electronic energy, E0
  Total E0, Electronic energy at well bottom at 0 [K]                 -184.68474691 [Eh]

  Zero-point energy, ZPE_vib = Sum_i nu_i / 2
    Electronic ZPE          0.000 [kcal/mol]        0.000 [kJ/mol]       0.00000000 [Eh]
    Translational ZPE       0.000 [kcal/mol]        0.000 [kJ/mol]       0.00000000 [Eh]
    Rotational ZPE          0.000 [kcal/mol]        0.000 [kJ/mol]       0.00000000 [Eh]
    Vibrational ZPE         7.206 [kcal/mol]       30.151 [kJ/mol]       0.01148384 [Eh]        2520.412 [cm^-1]
  Correction ZPE            7.206 [kcal/mol]       30.151 [kJ/mol]       0.01148384 [Eh]        2520.412 [cm^-1]
  Total ZPE, Electronic energy at 0 [K]                               -184.67326307 [Eh]

  Thermal Energy, E (includes ZPE)
    Electronic E            0.000 [kcal/mol]        0.000 [kJ/mol]       0.00000000 [Eh]
    Translational E         0.889 [kcal/mol]        3.718 [kJ/mol]       0.00141628 [Eh]
    Rotational E            0.592 [kcal/mol]        2.479 [kJ/mol]       0.00094418 [Eh]
    Vibrational E           7.388 [kcal/mol]       30.913 [kJ/mol]       0.01177428 [Eh]
  Correction E              8.870 [kcal/mol]       37.111 [kJ/mol]       0.01413474 [Eh]
  Total E, Electronic energy at  298.15 [K]                           -184.67061217 [Eh]

  Enthalpy, H_trans = E_trans + k_B * T
    Electronic H            0.000 [kcal/mol]        0.000 [kJ/mol]       0.00000000 [Eh]
    Translational H         1.481 [kcal/mol]        6.197 [kJ/mol]       0.00236046 [Eh]
    Rotational H            0.592 [kcal/mol]        2.479 [kJ/mol]       0.00094418 [Eh]
    Vibrational H           7.388 [kcal/mol]       30.913 [kJ/mol]       0.01177428 [Eh]
  Correction H              9.462 [kcal/mol]       39.590 [kJ/mol]       0.01507893 [Eh]
  Total H, Enthalpy at  298.15 [K]                                    -184.66966798 [Eh]

  Gibbs free energy, G = H - T * S
    Electronic G            0.000 [kcal/mol]        0.000 [kJ/mol]       0.00000000 [Eh]
    Translational G        -9.631 [kcal/mol]      -40.297 [kJ/mol]      -0.01534814 [Eh]
    Rotational G           -3.665 [kcal/mol]      -15.332 [kJ/mol]      -0.00583978 [Eh]
    Vibrational G           7.149 [kcal/mol]       29.912 [kJ/mol]       0.01139300 [Eh]
  Correction G             -6.146 [kcal/mol]      -25.717 [kJ/mol]      -0.00979492 [Eh]
  Total G, Free enthalpy at  298.15 [K]                               -184.69454183 [Eh]

*** Psi4 exiting successfully. Buy a developer a beer!
