                               Psi4 1.3.2 release

  ==> Input File <==

--------------------------------------------------------------------------
memory 144 GB

molecule {
0 1
O 0.0000000000 0.0000000000 0.0000000000
C 0.0000000000 0.0000000000 1.1584320400
S 0.0000000000 0.0000000000 2.7252829900
}

set dynamic_level 1
set basis cc-pV(Q+d)Z

optimize("wB97X-V")
frequencies("wB97X-V")
--------------------------------------------------------------------------

    Molecular point group: c2v
  Charge       = 0
  Multiplicity = 1
  Basis Set: CC-PV(Q+D)Z
    Blend: CC-PV(Q+D)Z
  Basis Set: (CC-PV(Q+D)Z AUX)
    Blend: CC-PVQZ-JKFIT
  @DF-RKS Final Energy:  -511.51084516728520
    Total Energy =                       -511.5108451672852539
    Molecular point group: c2v
  Basis Set: CC-PV(Q+D)Z
    Blend: CC-PV(Q+D)Z
  Basis Set: (CC-PV(Q+D)Z AUX)
    Blend: CC-PVQZ-JKFIT
  @DF-RKS Final Energy:  -511.51082090961813
    Total Energy =                       -511.5108209096181326
  Basis Set: CC-PV(Q+D)Z
    Blend: CC-PV(Q+D)Z
  Basis Set: (CC-PV(Q+D)Z AUX)
    Blend: CC-PVQZ-JKFIT
  @DF-RKS Final Energy:  -511.51086717709455
    Total Energy =                       -511.5108671770945534
  Basis Set: CC-PV(Q+D)Z
    Blend: CC-PV(Q+D)Z
  Basis Set: (CC-PV(Q+D)Z AUX)
    Blend: CC-PVQZ-JKFIT
  @DF-RKS Final Energy:  -511.51085033988846
    Total Energy =                       -511.5108503398884636
  @DF-RKS Final Energy:  -511.51083735098211
    Total Energy =                       -511.5108373509821149
  @DF-RKS Final Energy:  -511.51100554086958
    Total Energy =                       -511.5110055408695757
  @DF-RKS Final Energy:  -511.51100211997380
    Total Energy =                       -511.5110021199737957
  @DF-RKS Final Energy:  -511.51100660676451
    Total Energy =                       -511.5110066067643970
  @DF-RKS Final Energy:  -511.51100558253648
    Total Energy =                       -511.5110055825364270
  @DF-RKS Final Energy:  -511.51100272788494
    Total Energy =                       -511.5110027278849998
  @DF-RKS Final Energy:  -511.51100662782255
    Total Energy =                       -511.5110066278225531
  @DF-RKS Final Energy:  -511.51100536817256
    Total Energy =                       -511.5110053681725617
  @DF-RKS Final Energy:  -511.51100552315052
    Total Energy =                       -511.5110055231505157
  @DF-RKS Final Energy:  -511.51100545596370
    Total Energy =                       -511.5110054559636978
  @DF-RKS Final Energy:  -511.51100501988810
    Total Energy =                       -511.5110050198880458
  **** Optimization is complete! (in 3 steps) ****
    Final optimized geometry and variables:
  @DF-RKS Final Energy:  -511.51100662782244
    Total Energy =                       -511.5110066278224394
  @DF-RKS Final Energy:  -511.51100536764733
    Total Energy =                       -511.5110053676473285
  @DF-RKS Final Energy:  -511.51100552298180
    Total Energy =                       -511.5110055229818613
  @DF-RKS Final Energy:  -511.51100545638644
    Total Energy =                       -511.5110054563864423
  @DF-RKS Final Energy:  -511.51100501917614
    Total Energy =                       -511.5110050191761388
  @DF-RKS Final Energy:  -511.51100662782255
    Total Energy =                       -511.5110066278225531
  @DF-RKS Final Energy:  -511.51100536764670
    Total Energy =                       -511.5110053676466464
  @DF-RKS Final Energy:  -511.51100552298180
    Total Energy =                       -511.5110055229818045
  @DF-RKS Final Energy:  -511.51100545638639
    Total Energy =                       -511.5110054563863855
  @DF-RKS Final Energy:  -511.51100501917654
    Total Energy =                       -511.5110050191765367
  Basis Set: CC-PV(Q+D)Z
    Blend: CC-PV(Q+D)Z
  Basis Set: (CC-PV(Q+D)Z AUX)
    Blend: CC-PVQZ-JKFIT
  @DF-RKS Final Energy:  -511.51100571336730
    Total Energy =                       -511.5110057133672967
  Basis Set: CC-PV(Q+D)Z
    Blend: CC-PV(Q+D)Z
  Basis Set: (CC-PV(Q+D)Z AUX)
    Blend: CC-PVQZ-JKFIT
  @DF-RKS Final Energy:  -511.51100599098982
    Total Energy =                       -511.5110059909898723
  Multiplicity = 1
  Basis Set: CC-PV(Q+D)Z
    Blend: CC-PV(Q+D)Z
  Basis Set: (CC-PV(Q+D)Z AUX)
    Blend: CC-PVQZ-JKFIT
  @DF-RKS Final Energy:  -511.51100648830015
    Total Energy =                       -511.5110064883002110
    Molecular point group: cs

    Geometry (in Angstrom), charge = 0, multiplicity = 1:

       Center              X                  Y                   Z               Mass
    ------------   -----------------  -----------------  -----------------  -----------------
         O            0.000000000000    -0.000287381305    -1.675681575437    15.994914619570
         C            0.000000000000     0.000665809671    -0.524446264145    12.000000000000
         S            0.000000000000    -0.000106126269     1.035145290335    31.972071174400

  Charge       = 0
  Multiplicity = 1
  Basis Set: CC-PV(Q+D)Z
    Blend: CC-PV(Q+D)Z
  Basis Set: (CC-PV(Q+D)Z AUX)
    Blend: CC-PVQZ-JKFIT

    Orbital Energies [Eh]
    ---------------------

    Doubly Occupied:

       1Ap   -88.920714     2Ap   -19.300216     3Ap   -10.440024
       4Ap    -8.078152     5Ap    -6.035333     1App   -6.028902
       6Ap    -6.028902     7Ap    -1.280793     8Ap    -0.954769
       9Ap    -0.671817     2App   -0.600493    10Ap    -0.600493
      11Ap    -0.581436     3App   -0.401706    12Ap    -0.401706

  @DF-RKS Final Energy:  -511.51100648839918

   => Energetics <=

    Nuclear Repulsion Energy =             79.6236885366398326
    One-Electron Energy =                -861.7508430215992803
    Two-Electron Energy =                 299.7744673647864033
    DFT Exchange-Correlation Energy =     -29.2828283805537772
    Empirical Dispersion Energy =           0.0000000000000000
    VV10 Nonlocal Energy =                  0.1245090123276219
    Total Energy =                       -511.5110064883991754

  Dipole Moment: [D]
     X:     0.0000      Y:     0.0008      Z:     0.6156     Total:     0.6156

  Vibration                       6                   7                   8
  Freq [cm^-1]                 542.8965            543.0893            898.4532
  Irrep                           B2                  B1                  A1
  Reduced mass [u]             13.0330             13.0330             19.6021
  Force const [mDyne/A]         2.2632              2.2648              9.3227

  Vibration                       9
  Freq [cm^-1]                2151.9923
  Irrep                           A1
  Reduced mass [u]             13.1427
  Force const [mDyne/A]        35.8605

  ==> Thermochemistry Components <==

  Entropy, S
    Electronic S            0.000 [cal/(mol K)]        0.000 [J/(mol K)]       0.00000000 [mEh/K] (multiplicity = 1)
    Translational S        38.194 [cal/(mol K)]      159.802 [J/(mol K)]       0.06086550 [mEh/K] (mol. weight = 59.9670 [u], P = 101325.00 [Pa])
    Rotational S           15.742 [cal/(mol K)]       65.863 [J/(mol K)]       0.02508575 [mEh/K] (symmetry no. = 1)
    Vibrational S           1.259 [cal/(mol K)]        5.267 [J/(mol K)]       0.00200628 [mEh/K]
  Total S                  55.194 [cal/(mol K)]      230.932 [J/(mol K)]       0.08795753 [mEh/K]
  Correction S              0.000 [cal/(mol K)]        0.000 [J/(mol K)]       0.00000000 [mEh/K]

  Constant volume heat capacity, Cv
    Electronic Cv           0.000 [cal/(mol K)]        0.000 [J/(mol K)]       0.00000000 [mEh/K]
    Translational Cv        2.981 [cal/(mol K)]       12.472 [J/(mol K)]       0.00475022 [mEh/K]
    Rotational Cv           1.987 [cal/(mol K)]        8.314 [J/(mol K)]       0.00316681 [mEh/K]
    Vibrational Cv          2.819 [cal/(mol K)]       11.794 [J/(mol K)]       0.00449215 [mEh/K]
  Total Cv                  7.787 [cal/(mol K)]       32.580 [J/(mol K)]       0.01240917 [mEh/K]
  Correction Cv             0.000 [cal/(mol K)]        0.000 [J/(mol K)]       0.00000000 [mEh/K]

  Constant pressure heat capacity, Cp
    Electronic Cp           0.000 [cal/(mol K)]        0.000 [J/(mol K)]       0.00000000 [mEh/K]
    Translational Cp        4.968 [cal/(mol K)]       20.786 [J/(mol K)]       0.00791703 [mEh/K]
    Rotational Cp           1.987 [cal/(mol K)]        8.314 [J/(mol K)]       0.00316681 [mEh/K]
    Vibrational Cp          2.819 [cal/(mol K)]       11.794 [J/(mol K)]       0.00449215 [mEh/K]
  Total Cp                  9.774 [cal/(mol K)]       40.895 [J/(mol K)]       0.01557598 [mEh/K]
  Correction Cp             0.000 [cal/(mol K)]        0.000 [J/(mol K)]       0.00000000 [mEh/K]

  ==> Thermochemistry Energy Analysis <==

  Raw electronic energy, E0
  Total E0, Electronic energy at well bottom at 0 [K]                 -511.51100663 [Eh]

  Zero-point energy, ZPE_vib = Sum_i nu_i / 2
    Electronic ZPE          0.000 [kcal/mol]        0.000 [kJ/mol]       0.00000000 [Eh]
    Translational ZPE       0.000 [kcal/mol]        0.000 [kJ/mol]       0.00000000 [Eh]
    Rotational ZPE          0.000 [kcal/mol]        0.000 [kJ/mol]       0.00000000 [Eh]
    Vibrational ZPE         5.913 [kcal/mol]       24.741 [kJ/mol]       0.00942348 [Eh]        2068.216 [cm^-1]
  Correction ZPE            5.913 [kcal/mol]       24.741 [kJ/mol]       0.00942348 [Eh]        2068.216 [cm^-1]
  Total ZPE, Electronic energy at 0 [K]                               -511.50158314 [Eh]

  Thermal Energy, E (includes ZPE)
    Electronic E            0.000 [kcal/mol]        0.000 [kJ/mol]       0.00000000 [Eh]
    Translational E         0.889 [kcal/mol]        3.718 [kJ/mol]       0.00141628 [Eh]
    Rotational E            0.592 [kcal/mol]        2.479 [kJ/mol]       0.00094418 [Eh]
    Vibrational E           6.191 [kcal/mol]       25.904 [kJ/mol]       0.00986649 [Eh]
  Correction E              7.673 [kcal/mol]       32.102 [kJ/mol]       0.01222695 [Eh]
  Total E, Electronic energy at  298.15 [K]                           -511.49877968 [Eh]

  Enthalpy, H_trans = E_trans + k_B * T
    Electronic H            0.000 [kcal/mol]        0.000 [kJ/mol]       0.00000000 [Eh]
    Translational H         1.481 [kcal/mol]        6.197 [kJ/mol]       0.00236046 [Eh]
    Rotational H            0.592 [kcal/mol]        2.479 [kJ/mol]       0.00094418 [Eh]
    Vibrational H           6.191 [kcal/mol]       25.904 [kJ/mol]       0.00986649 [Eh]
  Correction H              8.265 [kcal/mol]       34.581 [kJ/mol]       0.01317114 [Eh]
  Total H, Enthalpy at  298.15 [K]                                    -511.49783549 [Eh]

  Gibbs free energy, G = H - T * S
    Electronic G            0.000 [kcal/mol]        0.000 [kJ/mol]       0.00000000 [Eh]
    Translational G        -9.906 [kcal/mol]      -41.448 [kJ/mol]      -0.01578659 [Eh]
    Rotational G           -4.101 [kcal/mol]      -17.158 [kJ/mol]      -0.00653513 [Eh]
    Vibrational G           5.816 [kcal/mol]       24.334 [kJ/mol]       0.00926832 [Eh]
  Correction G             -8.191 [kcal/mol]      -34.272 [kJ/mol]      -0.01305340 [Eh]
  Total G, Free enthalpy at  298.15 [K]                               -511.52406003 [Eh]

*** Psi4 exiting successfully. Buy a developer a beer!
