                               Psi4 1.3.2 release

  ==> Input File <==

--------------------------------------------------------------------------
memory 144 GB

molecule {
0 1
P 0.0000000000 0.0000000000 -0.0679917919
H 1.1903431933 0.0000000000 0.6964572780
H -0.5951715967 -1.0308674445 0.6964572780
H -0.5951715967 1.0308674445 0.6964572780
}

set dynamic_level 1
set basis cc-pV(Q+d)Z

optimize("wB97X-V")
frequencies("wB97X-V")
--------------------------------------------------------------------------

    Molecular point group: cs
  Charge       = 0
  Multiplicity = 1
  Basis Set: CC-PV(Q+D)Z
    Blend: CC-PV(Q+D)Z
  Basis Set: (CC-PV(Q+D)Z AUX)
    Blend: CC-PVQZ-JKFIT
  @DF-RKS Final Energy:  -343.10470133969511
    Total Energy =                       -343.1047013396951115
    Molecular point group: cs
  Basis Set: CC-PV(Q+D)Z
    Blend: CC-PV(Q+D)Z
  Basis Set: (CC-PV(Q+D)Z AUX)
    Blend: CC-PVQZ-JKFIT
  @DF-RKS Final Energy:  -343.10469912349913
    Total Energy =                       -343.1046991234991879
  Basis Set: CC-PV(Q+D)Z
    Blend: CC-PV(Q+D)Z
  Basis Set: (CC-PV(Q+D)Z AUX)
    Blend: CC-PVQZ-JKFIT
  @DF-RKS Final Energy:  -343.10469942284601
    Total Energy =                       -343.1046994228459539
  Basis Set: CC-PV(Q+D)Z
    Blend: CC-PV(Q+D)Z
  Basis Set: (CC-PV(Q+D)Z AUX)
    Blend: CC-PVQZ-JKFIT
  @DF-RKS Final Energy:  -343.10470252406139
    Total Energy =                       -343.1047025240613948
  @DF-RKS Final Energy:  -343.10469788174362
    Total Energy =                       -343.1046978817436184
  @DF-RKS Final Energy:  -343.10469838881016
    Total Energy =                       -343.1046983888101636
  @DF-RKS Final Energy:  -343.10470067340577
    Total Energy =                       -343.1047006734057732
  @DF-RKS Final Energy:  -343.10469840635642
    Total Energy =                       -343.1046984063564764
  @DF-RKS Final Energy:  -343.10470065549345
    Total Energy =                       -343.1047006554935024
  @DF-RKS Final Energy:  -343.10470527852675
    Total Energy =                       -343.1047052785267510
  @DF-RKS Final Energy:  -343.10470320732122
    Total Energy =                       -343.1047032073212222
  @DF-RKS Final Energy:  -343.10470321683073
    Total Energy =                       -343.1047032168307851
  @DF-RKS Final Energy:  -343.10470473060644
    Total Energy =                       -343.1047047306064428
  @DF-RKS Final Energy:  -343.10470356432108
    Total Energy =                       -343.1047035643211416
  @DF-RKS Final Energy:  -343.10470372275716
    Total Energy =                       -343.1047037227571650
  @DF-RKS Final Energy:  -343.10470321245344
    Total Energy =                       -343.1047032124533871
  @DF-RKS Final Energy:  -343.10470372579294
    Total Energy =                       -343.1047037257929446
  @DF-RKS Final Energy:  -343.10470320862805
    Total Energy =                       -343.1047032086280524
  **** Optimization is complete! (in 2 steps) ****
    Final optimized geometry and variables:
  @DF-RKS Final Energy:  -343.10470527855540
    Total Energy =                       -343.1047052785554001
  @DF-RKS Final Energy:  -343.10470320726859
    Total Energy =                       -343.1047032072685852
  @DF-RKS Final Energy:  -343.10470372284306
    Total Energy =                       -343.1047037228430554
  @DF-RKS Final Energy:  -343.10470321244821
    Total Energy =                       -343.1047032124482143
  @DF-RKS Final Energy:  -343.10470372574343
    Total Energy =                       -343.1047037257434340
  @DF-RKS Final Energy:  -343.10470320854927
    Total Energy =                       -343.1047032085492674
  @DF-RKS Final Energy:  -343.10470150806674
    Total Energy =                       -343.1047015080667393
  @DF-RKS Final Energy:  -343.10470264975294
    Total Energy =                       -343.1047026497529373
  @DF-RKS Final Energy:  -343.10469966650214
    Total Energy =                       -343.1046996665021425
  @DF-RKS Final Energy:  -343.10470012388521
    Total Energy =                       -343.1047001238852658
  @DF-RKS Final Energy:  -343.10470002901536
    Total Energy =                       -343.1047000290154187
  @DF-RKS Final Energy:  -343.10470168526945
    Total Energy =                       -343.1047016852695037
  @DF-RKS Final Energy:  -343.10470265297391
    Total Energy =                       -343.1047026529739696
  @DF-RKS Final Energy:  -343.10470316494815
    Total Energy =                       -343.1047031649481482
  @DF-RKS Final Energy:  -343.10470002494350
    Total Energy =                       -343.1047000249434973
  @DF-RKS Final Energy:  -343.10470168678398
    Total Energy =                       -343.1047016867840398
  @DF-RKS Final Energy:  -343.10470035242940
    Total Energy =                       -343.1047003524293473
  @DF-RKS Final Energy:  -343.10470137071809
    Total Energy =                       -343.1047013707180326
  Basis Set: CC-PV(Q+D)Z
    Blend: CC-PV(Q+D)Z
  Basis Set: (CC-PV(Q+D)Z AUX)
    Blend: CC-PVQZ-JKFIT
  @DF-RKS Final Energy:  -343.10470320467363
    Total Energy =                       -343.1047032046736263
  Basis Set: CC-PV(Q+D)Z
    Blend: CC-PV(Q+D)Z
  Basis Set: (CC-PV(Q+D)Z AUX)
    Blend: CC-PVQZ-JKFIT
  @DF-RKS Final Energy:  -343.10470347457152
    Total Energy =                       -343.1047034745715791
  Multiplicity = 1
  Basis Set: CC-PV(Q+D)Z
    Blend: CC-PV(Q+D)Z
  Basis Set: (CC-PV(Q+D)Z AUX)
    Blend: CC-PVQZ-JKFIT
  @DF-RKS Final Energy:  -343.10470351366382
    Total Energy =                       -343.1047035136638783
    Molecular point group: c1

    Geometry (in Angstrom), charge = 0, multiplicity = 1:

       Center              X                  Y                   Z               Mass
    ------------   -----------------  -----------------  -----------------  -----------------
         P            0.000008916284     0.067687141580    -0.000107415127    30.973761998420
         H            0.594829336274    -0.694616104748     1.033159567812     1.007825032230
         H            0.597464924493    -0.692183308511    -1.032480382252     1.007825032230
         H           -1.192568287349    -0.693447997347     0.002622032869     1.007825032230

  Charge       = 0
  Multiplicity = 1
  Basis Set: CC-PV(Q+D)Z
    Blend: CC-PV(Q+D)Z
  Basis Set: (CC-PV(Q+D)Z AUX)
    Blend: CC-PVQZ-JKFIT

    Orbital Energies [Eh]
    ---------------------

    Doubly Occupied:

       1A    -77.098385     2A     -6.659638     3A     -4.814164
       4A     -4.814160     5A     -4.809716     6A     -0.772919
       7A     -0.489782     8A     -0.489104     9A     -0.374569

  @DF-RKS Final Energy:  -343.10470351376557

   => Energetics <=

    Nuclear Repulsion Energy =             17.6008911869579450
    One-Electron Energy =                -508.5624086248494677
    Two-Electron Energy =                 165.8010772857136317
    DFT Exchange-Correlation Energy =     -18.0196511192764035
    Empirical Dispersion Energy =           0.0000000000000000
    VV10 Nonlocal Energy =                  0.0753877576887107
    Total Energy =                       -343.1047035137656280

  Dipole Moment: [D]
     X:     0.0001      Y:    -0.6898      Z:    -0.0027     Total:     0.6898

  Vibration                       7                   8                   9
  Freq [cm^-1]                1020.7670           1150.0058           1359.1407
  Irrep                           Ap                  Ap                 App
  Reduced mass [u]              1.0753              1.0257              1.0300
  Force const [mDyne/A]         0.6601              0.7993              1.1211

  Vibration                       10                  11                  12
  Freq [cm^-1]                2453.1180           2456.5734           2520.0047
  Irrep                           Ap                  Ap                 App
  Reduced mass [u]              1.0319              1.0410              1.0367
  Force const [mDyne/A]         3.6587              3.7015              3.8788

  ==> Thermochemistry Components <==

  Entropy, S
    Electronic S            0.000 [cal/(mol K)]        0.000 [J/(mol K)]       0.00000000 [mEh/K] (multiplicity = 1)
    Translational S        36.502 [cal/(mol K)]      152.724 [J/(mol K)]       0.05816968 [mEh/K] (mol. weight = 33.9972 [u], P = 101325.00 [Pa])
    Rotational S           15.671 [cal/(mol K)]       65.566 [J/(mol K)]       0.02497261 [mEh/K] (symmetry no. = 1)
    Vibrational S           0.159 [cal/(mol K)]        0.664 [J/(mol K)]       0.00025282 [mEh/K]
  Total S                  52.331 [cal/(mol K)]      218.954 [J/(mol K)]       0.08339511 [mEh/K]
  Correction S              0.000 [cal/(mol K)]        0.000 [J/(mol K)]       0.00000000 [mEh/K]

  Constant volume heat capacity, Cv
    Electronic Cv           0.000 [cal/(mol K)]        0.000 [J/(mol K)]       0.00000000 [mEh/K]
    Translational Cv        2.981 [cal/(mol K)]       12.472 [J/(mol K)]       0.00475022 [mEh/K]
    Rotational Cv           2.981 [cal/(mol K)]       12.472 [J/(mol K)]       0.00475022 [mEh/K]
    Vibrational Cv          0.722 [cal/(mol K)]        3.021 [J/(mol K)]       0.00115052 [mEh/K]
  Total Cv                  6.684 [cal/(mol K)]       27.964 [J/(mol K)]       0.01065095 [mEh/K]
  Correction Cv             0.000 [cal/(mol K)]        0.000 [J/(mol K)]       0.00000000 [mEh/K]

  Constant pressure heat capacity, Cp
    Electronic Cp           0.000 [cal/(mol K)]        0.000 [J/(mol K)]       0.00000000 [mEh/K]
    Translational Cp        4.968 [cal/(mol K)]       20.786 [J/(mol K)]       0.00791703 [mEh/K]
    Rotational Cp           2.981 [cal/(mol K)]       12.472 [J/(mol K)]       0.00475022 [mEh/K]
    Vibrational Cp          0.722 [cal/(mol K)]        3.021 [J/(mol K)]       0.00115052 [mEh/K]
  Total Cp                  8.671 [cal/(mol K)]       36.279 [J/(mol K)]       0.01381776 [mEh/K]
  Correction Cp             0.000 [cal/(mol K)]        0.000 [J/(mol K)]       0.00000000 [mEh/K]

  ==> Thermochemistry Energy Analysis <==

  Raw electronic energy, E0
  Total E0, Electronic energy at well bottom at 0 [K]                 -343.10470528 [Eh]

  Zero-point energy, ZPE_vib = Sum_i nu_i / 2
    Electronic ZPE          0.000 [kcal/mol]        0.000 [kJ/mol]       0.00000000 [Eh]
    Translational ZPE       0.000 [kcal/mol]        0.000 [kJ/mol]       0.00000000 [Eh]
    Rotational ZPE          0.000 [kcal/mol]        0.000 [kJ/mol]       0.00000000 [Eh]
    Vibrational ZPE        15.668 [kcal/mol]       65.553 [kJ/mol]       0.02496783 [Eh]        5479.805 [cm^-1]
  Correction ZPE           15.668 [kcal/mol]       65.553 [kJ/mol]       0.02496783 [Eh]        5479.805 [cm^-1]
  Total ZPE, Electronic energy at 0 [K]                               -343.07973745 [Eh]

  Thermal Energy, E (includes ZPE)
    Electronic E            0.000 [kcal/mol]        0.000 [kJ/mol]       0.00000000 [Eh]
    Translational E         0.889 [kcal/mol]        3.718 [kJ/mol]       0.00141628 [Eh]
    Rotational E            0.889 [kcal/mol]        3.718 [kJ/mol]       0.00141628 [Eh]
    Vibrational E          15.707 [kcal/mol]       65.720 [kJ/mol]       0.02503129 [Eh]
  Correction E             17.485 [kcal/mol]       73.157 [kJ/mol]       0.02786385 [Eh]
  Total E, Electronic energy at  298.15 [K]                           -343.07684143 [Eh]

  Enthalpy, H_trans = E_trans + k_B * T
    Electronic H            0.000 [kcal/mol]        0.000 [kJ/mol]       0.00000000 [Eh]
    Translational H         1.481 [kcal/mol]        6.197 [kJ/mol]       0.00236046 [Eh]
    Rotational H            0.889 [kcal/mol]        3.718 [kJ/mol]       0.00141628 [Eh]
    Vibrational H          15.707 [kcal/mol]       65.720 [kJ/mol]       0.02503129 [Eh]
  Correction H             18.077 [kcal/mol]       75.635 [kJ/mol]       0.02880803 [Eh]
  Total H, Enthalpy at  298.15 [K]                                    -343.07589725 [Eh]

  Gibbs free energy, G = H - T * S
    Electronic G            0.000 [kcal/mol]        0.000 [kJ/mol]       0.00000000 [Eh]
    Translational G        -9.402 [kcal/mol]      -39.337 [kJ/mol]      -0.01498283 [Eh]
    Rotational G           -3.783 [kcal/mol]      -15.830 [kJ/mol]      -0.00602931 [Eh]
    Vibrational G          15.660 [kcal/mol]       65.522 [kJ/mol]       0.02495591 [Eh]
  Correction G              2.475 [kcal/mol]       10.354 [kJ/mol]       0.00394378 [Eh]
  Total G, Free enthalpy at  298.15 [K]                               -343.10076150 [Eh]

*** Psi4 exiting successfully. Buy a developer a beer!
