                               Psi4 1.3.2 release

  ==> Input File <==

--------------------------------------------------------------------------
memory 144 GB

molecule {
0 1
Si 0.0000000000 0.0000000000 0.0000000000
O 0.0000000000 0.0000000000 1.5170406700
}

set dynamic_level 1
set basis cc-pV(Q+d)Z

optimize("wB97X-V")
frequencies("wB97X-V")
--------------------------------------------------------------------------

    Molecular point group: c2v
  Charge       = 0
  Multiplicity = 1
  Basis Set: CC-PV(Q+D)Z
    Blend: CC-PV(Q+D)Z
  Basis Set: (CC-PV(Q+D)Z AUX)
    Blend: CC-PVQZ-JKFIT
  @DF-RKS Final Energy:  -364.69769527882215
    Total Energy =                       -364.6976952788221524
    Molecular point group: c2v
  Basis Set: CC-PV(Q+D)Z
    Blend: CC-PV(Q+D)Z
  Basis Set: (CC-PV(Q+D)Z AUX)
    Blend: CC-PVQZ-JKFIT
  @DF-RKS Final Energy:  -364.69766949990276
    Total Energy =                       -364.6976694999027018
  Basis Set: CC-PV(Q+D)Z
    Blend: CC-PV(Q+D)Z
  Basis Set: (CC-PV(Q+D)Z AUX)
    Blend: CC-PVQZ-JKFIT
  @DF-RKS Final Energy:  -364.69771957201448
    Total Energy =                       -364.6977195720144778
  Basis Set: CC-PV(Q+D)Z
    Blend: CC-PV(Q+D)Z
  Basis Set: (CC-PV(Q+D)Z AUX)
    Blend: CC-PVQZ-JKFIT
  @DF-RKS Final Energy:  -364.69789798898614
    Total Energy =                       -364.6978979889861421
  @DF-RKS Final Energy:  -364.69789409666583
    Total Energy =                       -364.6978940966657774
  @DF-RKS Final Energy:  -364.69790029456760
    Total Energy =                       -364.6979002945676029
  @DF-RKS Final Energy:  -364.69790100526120
    Total Energy =                       -364.6979010052612011
  @DF-RKS Final Energy:  -364.69790032213569
    Total Energy =                       -364.6979003221357516
  @DF-RKS Final Energy:  -364.69790008695907
    Total Energy =                       -364.6979000869590095
  **** Optimization is complete! (in 3 steps) ****
    Final optimized geometry and variables:
  @DF-RKS Final Energy:  -364.69790100526126
    Total Energy =                       -364.6979010052612580
  @DF-RKS Final Energy:  -364.69790032213609
    Total Energy =                       -364.6979003221359790
  Basis Set: CC-PV(Q+D)Z
    Blend: CC-PV(Q+D)Z
  Basis Set: (CC-PV(Q+D)Z AUX)
    Blend: CC-PVQZ-JKFIT
  @DF-RKS Final Energy:  -364.69790008695929
    Total Energy =                       -364.6979000869593506
  Basis Set: CC-PV(Q+D)Z
    Blend: CC-PV(Q+D)Z
  Basis Set: (CC-PV(Q+D)Z AUX)
    Blend: CC-PVQZ-JKFIT
  @DF-RKS Final Energy:  -364.69790100526114
    Total Energy =                       -364.6979010052611443
  Multiplicity = 1
  Basis Set: CC-PV(Q+D)Z
    Blend: CC-PV(Q+D)Z
  Basis Set: (CC-PV(Q+D)Z AUX)
    Blend: CC-PVQZ-JKFIT
  @DF-RKS Final Energy:  -364.69790032213643
    Total Energy =                       -364.6979003221364337
    Molecular point group: c2v

    Geometry (in Angstrom), charge = 0, multiplicity = 1:

       Center              X                  Y                   Z               Mass
    ------------   -----------------  -----------------  -----------------  -----------------
         SI           0.000000000000     0.000000000000    -0.546608104044    27.976926534650
         O            0.000000000000     0.000000000000     0.956079799974    15.994914619570

  Charge       = 0
  Multiplicity = 1
  Basis Set: CC-PV(Q+D)Z
    Blend: CC-PV(Q+D)Z
  Basis Set: (CC-PV(Q+D)Z AUX)
    Blend: CC-PVQZ-JKFIT

    Orbital Energies [Eh]
    ---------------------

    Doubly Occupied:

       1A1   -66.196093     2A1   -19.192330     3A1    -5.426102
       1B2    -3.778841     1B1    -3.778841     4A1    -3.770845
       5A1    -1.069047     6A1    -0.546609     2B1    -0.440092
       2B2    -0.440092     7A1    -0.411247

  @DF-RKS Final Energy:  -364.69790008695941

   => Energetics <=

    Nuclear Repulsion Energy =             39.4412222501741212
    One-Electron Energy =                -583.3863965223739569
    Two-Electron Energy =                 200.9337898740610910
    DFT Exchange-Correlation Energy =     -21.7795043708543545
    Empirical Dispersion Energy =           0.0000000000000000
    VV10 Nonlocal Energy =                  0.0929886820337362
    Total Energy =                       -364.6979000869594074

  Dipole Moment: [D]
     X:     0.0000      Y:     0.0000      Z:    -3.1596     Total:     3.1596

  Vibration                       6
  Freq [cm^-1]                1301.0314
  Irrep                           A1
  Reduced mass [u]             18.9466
  Force const [mDyne/A]        18.8954

  ==> Thermochemistry Components <==

  Entropy, S
    Electronic S            0.000 [cal/(mol K)]        0.000 [J/(mol K)]       0.00000000 [mEh/K] (multiplicity = 1)
    Translational S        37.269 [cal/(mol K)]      155.933 [J/(mol K)]       0.05939177 [mEh/K] (mol. weight = 43.9718 [u], P = 101325.00 [Pa])
    Rotational S           13.204 [cal/(mol K)]       55.247 [J/(mol K)]       0.02104256 [mEh/K] (symmetry no. = 1)
    Vibrational S           0.027 [cal/(mol K)]        0.114 [J/(mol K)]       0.00004333 [mEh/K]
  Total S                  50.500 [cal/(mol K)]      211.294 [J/(mol K)]       0.08047765 [mEh/K]
  Correction S              0.000 [cal/(mol K)]        0.000 [J/(mol K)]       0.00000000 [mEh/K]

  Constant volume heat capacity, Cv
    Electronic Cv           0.000 [cal/(mol K)]        0.000 [J/(mol K)]       0.00000000 [mEh/K]
    Translational Cv        2.981 [cal/(mol K)]       12.472 [J/(mol K)]       0.00475022 [mEh/K]
    Rotational Cv           1.987 [cal/(mol K)]        8.314 [J/(mol K)]       0.00316681 [mEh/K]
    Vibrational Cv          0.148 [cal/(mol K)]        0.617 [J/(mol K)]       0.00023512 [mEh/K]
  Total Cv                  5.116 [cal/(mol K)]       21.403 [J/(mol K)]       0.00815215 [mEh/K]
  Correction Cv             0.000 [cal/(mol K)]        0.000 [J/(mol K)]       0.00000000 [mEh/K]

  Constant pressure heat capacity, Cp
    Electronic Cp           0.000 [cal/(mol K)]        0.000 [J/(mol K)]       0.00000000 [mEh/K]
    Translational Cp        4.968 [cal/(mol K)]       20.786 [J/(mol K)]       0.00791703 [mEh/K]
    Rotational Cp           1.987 [cal/(mol K)]        8.314 [J/(mol K)]       0.00316681 [mEh/K]
    Vibrational Cp          0.148 [cal/(mol K)]        0.617 [J/(mol K)]       0.00023512 [mEh/K]
  Total Cp                  7.103 [cal/(mol K)]       29.718 [J/(mol K)]       0.01131896 [mEh/K]
  Correction Cp             0.000 [cal/(mol K)]        0.000 [J/(mol K)]       0.00000000 [mEh/K]

  ==> Thermochemistry Energy Analysis <==

  Raw electronic energy, E0
  Total E0, Electronic energy at well bottom at 0 [K]                 -364.69790101 [Eh]

  Zero-point energy, ZPE_vib = Sum_i nu_i / 2
    Electronic ZPE          0.000 [kcal/mol]        0.000 [kJ/mol]       0.00000000 [Eh]
    Translational ZPE       0.000 [kcal/mol]        0.000 [kJ/mol]       0.00000000 [Eh]
    Rotational ZPE          0.000 [kcal/mol]        0.000 [kJ/mol]       0.00000000 [Eh]
    Vibrational ZPE         1.860 [kcal/mol]        7.782 [kJ/mol]       0.00296397 [Eh]         650.516 [cm^-1]
  Correction ZPE            1.860 [kcal/mol]        7.782 [kJ/mol]       0.00296397 [Eh]         650.516 [cm^-1]
  Total ZPE, Electronic energy at 0 [K]                               -364.69493704 [Eh]

  Thermal Energy, E (includes ZPE)
    Electronic E            0.000 [kcal/mol]        0.000 [kJ/mol]       0.00000000 [Eh]
    Translational E         0.889 [kcal/mol]        3.718 [kJ/mol]       0.00141628 [Eh]
    Rotational E            0.592 [kcal/mol]        2.479 [kJ/mol]       0.00094418 [Eh]
    Vibrational E           1.867 [kcal/mol]        7.811 [kJ/mol]       0.00297511 [Eh]
  Correction E              3.348 [kcal/mol]       14.009 [kJ/mol]       0.00533557 [Eh]
  Total E, Electronic energy at  298.15 [K]                           -364.69256543 [Eh]

  Enthalpy, H_trans = E_trans + k_B * T
    Electronic H            0.000 [kcal/mol]        0.000 [kJ/mol]       0.00000000 [Eh]
    Translational H         1.481 [kcal/mol]        6.197 [kJ/mol]       0.00236046 [Eh]
    Rotational H            0.592 [kcal/mol]        2.479 [kJ/mol]       0.00094418 [Eh]
    Vibrational H           1.867 [kcal/mol]        7.811 [kJ/mol]       0.00297511 [Eh]
  Correction H              3.941 [kcal/mol]       16.488 [kJ/mol]       0.00627976 [Eh]
  Total H, Enthalpy at  298.15 [K]                                    -364.69162125 [Eh]

  Gibbs free energy, G = H - T * S
    Electronic G            0.000 [kcal/mol]        0.000 [kJ/mol]       0.00000000 [Eh]
    Translational G        -9.631 [kcal/mol]      -40.294 [kJ/mol]      -0.01534720 [Eh]
    Rotational G           -3.344 [kcal/mol]      -13.993 [kJ/mol]      -0.00532965 [Eh]
    Vibrational G           1.859 [kcal/mol]        7.777 [kJ/mol]       0.00296219 [Eh]
  Correction G            -11.116 [kcal/mol]      -46.510 [kJ/mol]      -0.01771465 [Eh]
  Total G, Free enthalpy at  298.15 [K]                               -364.71561566 [Eh]

*** Psi4 exiting successfully. Buy a developer a beer!
