                               Psi4 1.3.2 release

  ==> Input File <==

--------------------------------------------------------------------------
memory 144 GB

molecule {
0 1
S 0.0000000000 0.0000000000 0.0000000000
O 0.0000000000 0.0000000000 1.4355085900
O 1.2508167239 0.0000000000 -0.7043737894
}

set dynamic_level 1
set basis cc-pV(Q+d)Z

optimize("wB97X-V")
frequencies("wB97X-V")
--------------------------------------------------------------------------

    Molecular point group: c2v
  Charge       = 0
  Multiplicity = 1
  Basis Set: CC-PV(Q+D)Z
    Blend: CC-PV(Q+D)Z
  Basis Set: (CC-PV(Q+D)Z AUX)
    Blend: CC-PVQZ-JKFIT
  @DF-RKS Final Energy:  -548.60889259854980
    Total Energy =                       -548.6088925985500282
    Molecular point group: c2v
  Basis Set: CC-PV(Q+D)Z
    Blend: CC-PV(Q+D)Z
  Basis Set: (CC-PV(Q+D)Z AUX)
    Blend: CC-PVQZ-JKFIT
  @DF-RKS Final Energy:  -548.60887817022819
    Total Energy =                       -548.6088781702280812
  Basis Set: CC-PV(Q+D)Z
    Blend: CC-PV(Q+D)Z
  Basis Set: (CC-PV(Q+D)Z AUX)
    Blend: CC-PVQZ-JKFIT
  @DF-RKS Final Energy:  -548.60890626670243
    Total Energy =                       -548.6089062667023200
  Basis Set: CC-PV(Q+D)Z
    Blend: CC-PV(Q+D)Z
  Basis Set: (CC-PV(Q+D)Z AUX)
    Blend: CC-PVQZ-JKFIT
  @DF-RKS Final Energy:  -548.60891373053357
    Total Energy =                       -548.6089137305335726
  @DF-RKS Final Energy:  -548.60887056935894
    Total Energy =                       -548.6088705693588281
  @DF-RKS Final Energy:  -548.60911801413431
    Total Energy =                       -548.6091180141343102
  @DF-RKS Final Energy:  -548.60911073598822
    Total Energy =                       -548.6091107359882244
  @DF-RKS Final Energy:  -548.60912450463468
    Total Energy =                       -548.6091245046347922
  @DF-RKS Final Energy:  -548.60912191279908
    Total Energy =                       -548.6091219127990826
  @DF-RKS Final Energy:  -548.60911318110300
    Total Energy =                       -548.6091131811029982
  @DF-RKS Final Energy:  -548.60914623912902
    Total Energy =                       -548.6091462391291316
  @DF-RKS Final Energy:  -548.60914760299897
    Total Energy =                       -548.6091476029989735
  @DF-RKS Final Energy:  -548.60914408316034
    Total Energy =                       -548.6091440831603450
  @DF-RKS Final Energy:  -548.60914505043127
    Total Energy =                       -548.6091450504313798
  @DF-RKS Final Energy:  -548.60914647666243
    Total Energy =                       -548.6091464766624313
  @DF-RKS Final Energy:  -548.60914854968951
    Total Energy =                       -548.6091485496896212
  @DF-RKS Final Energy:  -548.60914811643499
    Total Energy =                       -548.6091481164349943
  @DF-RKS Final Energy:  -548.60914819525738
    Total Energy =                       -548.6091481952573758
  @DF-RKS Final Energy:  -548.60914810215388
    Total Energy =                       -548.6091481021537675
  @DF-RKS Final Energy:  -548.60914805115715
    Total Energy =                       -548.6091480511571490
  **** Optimization is complete! (in 4 steps) ****
    Final optimized geometry and variables:
  @DF-RKS Final Energy:  -548.60914854969099
    Total Energy =                       -548.6091485496910991
  @DF-RKS Final Energy:  -548.60914811643477
    Total Energy =                       -548.6091481164348806
  @DF-RKS Final Energy:  -548.60914819525703
    Total Energy =                       -548.6091481952571485
  @DF-RKS Final Energy:  -548.60914810215343
    Total Energy =                       -548.6091481021535401
  @DF-RKS Final Energy:  -548.60914805115704
    Total Energy =                       -548.6091480511570353
  @DF-RKS Final Energy:  -548.60914854969246
    Total Energy =                       -548.6091485496924633
  @DF-RKS Final Energy:  -548.60914811643465
    Total Energy =                       -548.6091481164346533
  @DF-RKS Final Energy:  -548.60914819525726
    Total Energy =                       -548.6091481952572622
  @DF-RKS Final Energy:  -548.60914810215399
    Total Energy =                       -548.6091481021539948
  Basis Set: CC-PV(Q+D)Z
    Blend: CC-PV(Q+D)Z
  Basis Set: (CC-PV(Q+D)Z AUX)
    Blend: CC-PVQZ-JKFIT
  @DF-RKS Final Energy:  -548.60914805115772
    Total Energy =                       -548.6091480511577174
  Basis Set: CC-PV(Q+D)Z
    Blend: CC-PV(Q+D)Z
  Basis Set: (CC-PV(Q+D)Z AUX)
    Blend: CC-PVQZ-JKFIT
  @DF-RKS Final Energy:  -548.60914828117996
    Total Energy =                       -548.6091482811799551
  Multiplicity = 1
  Basis Set: CC-PV(Q+D)Z
    Blend: CC-PV(Q+D)Z
  Basis Set: (CC-PV(Q+D)Z AUX)
    Blend: CC-PVQZ-JKFIT
  @DF-RKS Final Energy:  -548.60914825656118
    Total Energy =                       -548.6091482565611841
    Molecular point group: cs

    Geometry (in Angstrom), charge = 0, multiplicity = 1:

       Center              X                  Y                   Z               Mass
    ------------   -----------------  -----------------  -----------------  -----------------
         S            0.000000000000    -0.000305531533    -0.361722629031    31.972071174400
         O            0.000000000000     1.229188608810     0.361701548118    15.994914619570
         O            0.000000000000    -1.228577884955     0.361342113936    15.994914619570

  Charge       = 0
  Multiplicity = 1
  Basis Set: CC-PV(Q+D)Z
    Blend: CC-PV(Q+D)Z
  Basis Set: (CC-PV(Q+D)Z AUX)
    Blend: CC-PVQZ-JKFIT

    Orbital Energies [Eh]
    ---------------------

    Doubly Occupied:

       1Ap   -89.071510     2Ap   -19.269964     3Ap   -19.269788
       4Ap    -8.207323     1App   -6.165656     5Ap    -6.161804
       6Ap    -6.158209     7Ap    -1.286342     8Ap    -1.189062
       9Ap    -0.757342     2App   -0.616441    10Ap    -0.615938
      11Ap    -0.609897     3App   -0.485527    12Ap    -0.474318
      13Ap    -0.442709

  @DF-RKS Final Energy:  -548.60914756203783

   => Energetics <=

    Nuclear Repulsion Energy =            108.7848884704520174
    One-Electron Energy =                -971.7159896991526011
    Two-Electron Energy =                 345.8941860042932603
    DFT Exchange-Correlation Energy =     -31.7047967938581223
    Empirical Dispersion Energy =           0.0000000000000000
    VV10 Nonlocal Energy =                  0.1325644562275442
    Total Energy =                       -548.6091475620378333

  Dipole Moment: [D]
     X:     0.0000      Y:    -0.0062      Z:    -1.6940     Total:     1.6940

  Vibration                       7                   8                   9
  Freq [cm^-1]                 539.6247           1241.5187           1444.9467
  Irrep                           A1                  A1                  B2
  Reduced mass [u]             18.6356             17.9362             20.3250
  Force const [mDyne/A]         3.1972             16.2887             25.0026

  ==> Thermochemistry Components <==

  Entropy, S
    Electronic S            0.000 [cal/(mol K)]        0.000 [J/(mol K)]       0.00000000 [mEh/K] (multiplicity = 1)
    Translational S        38.386 [cal/(mol K)]      160.607 [J/(mol K)]       0.06117186 [mEh/K] (mol. weight = 63.9619 [u], P = 101325.00 [Pa])
    Rotational S           20.194 [cal/(mol K)]       84.493 [J/(mol K)]       0.03218169 [mEh/K] (symmetry no. = 2)
    Vibrational S           0.616 [cal/(mol K)]        2.576 [J/(mol K)]       0.00098130 [mEh/K]
  Total S                  59.196 [cal/(mol K)]      247.676 [J/(mol K)]       0.09433485 [mEh/K]
  Correction S              0.000 [cal/(mol K)]        0.000 [J/(mol K)]       0.00000000 [mEh/K]

  Constant volume heat capacity, Cv
    Electronic Cv           0.000 [cal/(mol K)]        0.000 [J/(mol K)]       0.00000000 [mEh/K]
    Translational Cv        2.981 [cal/(mol K)]       12.472 [J/(mol K)]       0.00475022 [mEh/K]
    Rotational Cv           2.981 [cal/(mol K)]       12.472 [J/(mol K)]       0.00475022 [mEh/K]
    Vibrational Cv          1.432 [cal/(mol K)]        5.993 [J/(mol K)]       0.00228268 [mEh/K]
  Total Cv                  7.394 [cal/(mol K)]       30.937 [J/(mol K)]       0.01178311 [mEh/K]
  Correction Cv             0.000 [cal/(mol K)]        0.000 [J/(mol K)]       0.00000000 [mEh/K]

  Constant pressure heat capacity, Cp
    Electronic Cp           0.000 [cal/(mol K)]        0.000 [J/(mol K)]       0.00000000 [mEh/K]
    Translational Cp        4.968 [cal/(mol K)]       20.786 [J/(mol K)]       0.00791703 [mEh/K]
    Rotational Cp           2.981 [cal/(mol K)]       12.472 [J/(mol K)]       0.00475022 [mEh/K]
    Vibrational Cp          1.432 [cal/(mol K)]        5.993 [J/(mol K)]       0.00228268 [mEh/K]
  Total Cp                  9.381 [cal/(mol K)]       39.251 [J/(mol K)]       0.01494992 [mEh/K]
  Correction Cp             0.000 [cal/(mol K)]        0.000 [J/(mol K)]       0.00000000 [mEh/K]

  ==> Thermochemistry Energy Analysis <==

  Raw electronic energy, E0
  Total E0, Electronic energy at well bottom at 0 [K]                 -548.60914855 [Eh]

  Zero-point energy, ZPE_vib = Sum_i nu_i / 2
    Electronic ZPE          0.000 [kcal/mol]        0.000 [kJ/mol]       0.00000000 [Eh]
    Translational ZPE       0.000 [kcal/mol]        0.000 [kJ/mol]       0.00000000 [Eh]
    Rotational ZPE          0.000 [kcal/mol]        0.000 [kJ/mol]       0.00000000 [Eh]
    Vibrational ZPE         4.612 [kcal/mol]       19.296 [kJ/mol]       0.00734957 [Eh]        1613.045 [cm^-1]
  Correction ZPE            4.612 [kcal/mol]       19.296 [kJ/mol]       0.00734957 [Eh]        1613.045 [cm^-1]
  Total ZPE, Electronic energy at 0 [K]                               -548.60179898 [Eh]

  Thermal Energy, E (includes ZPE)
    Electronic E            0.000 [kcal/mol]        0.000 [kJ/mol]       0.00000000 [Eh]
    Translational E         0.889 [kcal/mol]        3.718 [kJ/mol]       0.00141628 [Eh]
    Rotational E            0.889 [kcal/mol]        3.718 [kJ/mol]       0.00141628 [Eh]
    Vibrational E           4.748 [kcal/mol]       19.865 [kJ/mol]       0.00756634 [Eh]
  Correction E              6.525 [kcal/mol]       27.302 [kJ/mol]       0.01039889 [Eh]
  Total E, Electronic energy at  298.15 [K]                           -548.59874966 [Eh]

  Enthalpy, H_trans = E_trans + k_B * T
    Electronic H            0.000 [kcal/mol]        0.000 [kJ/mol]       0.00000000 [Eh]
    Translational H         1.481 [kcal/mol]        6.197 [kJ/mol]       0.00236046 [Eh]
    Rotational H            0.889 [kcal/mol]        3.718 [kJ/mol]       0.00141628 [Eh]
    Vibrational H           4.748 [kcal/mol]       19.865 [kJ/mol]       0.00756634 [Eh]
  Correction H              7.118 [kcal/mol]       29.781 [kJ/mol]       0.01134307 [Eh]
  Total H, Enthalpy at  298.15 [K]                                    -548.59780547 [Eh]

  Gibbs free energy, G = H - T * S
    Electronic G            0.000 [kcal/mol]        0.000 [kJ/mol]       0.00000000 [Eh]
    Translational G        -9.964 [kcal/mol]      -41.687 [kJ/mol]      -0.01587793 [Eh]
    Rotational G           -5.132 [kcal/mol]      -21.473 [kJ/mol]      -0.00817869 [Eh]
    Vibrational G           4.564 [kcal/mol]       19.097 [kJ/mol]       0.00727376 [Eh]
  Correction G            -10.531 [kcal/mol]      -44.063 [kJ/mol]      -0.01678286 [Eh]
  Total G, Free enthalpy at  298.15 [K]                               -548.62593141 [Eh]

*** Psi4 exiting successfully. Buy a developer a beer!
