                               Psi4 1.3.2 release

  ==> Input File <==

--------------------------------------------------------------------------
memory 144 GB

molecule {
0 1
C -0.0479167327 0.6682939561 0.0000000000
H -1.0907101856 0.9776732069 0.0000000000
H 0.4344161461 1.0815239129 0.8898543791
H 0.4344161461 1.0815239129 -0.8898543791
O -0.0410920225 -0.7509554452 0.0000000000
H 0.8712936485 -1.0420305436 0.0000000000
}

set dynamic_level 1
set basis cc-pV(Q+d)Z

optimize("wB97X-V")
frequencies("wB97X-V")
--------------------------------------------------------------------------

    Molecular point group: cs
  Charge       = 0
  Multiplicity = 1
  Basis Set: CC-PV(Q+D)Z
    Blend: CC-PV(Q+D)Z
  Basis Set: (CC-PV(Q+D)Z AUX)
    Blend: CC-PVQZ-JKFIT
  @DF-RKS Final Energy:  -115.73708326022103
    Total Energy =                       -115.7370832602210413
    Molecular point group: cs
  Basis Set: CC-PV(Q+D)Z
    Blend: CC-PV(Q+D)Z
  Basis Set: (CC-PV(Q+D)Z AUX)
    Blend: CC-PVQZ-JKFIT
  @DF-RKS Final Energy:  -115.73708360706274
    Total Energy =                       -115.7370836070627433
  Basis Set: CC-PV(Q+D)Z
    Blend: CC-PV(Q+D)Z
  Basis Set: (CC-PV(Q+D)Z AUX)
    Blend: CC-PVQZ-JKFIT
  @DF-RKS Final Energy:  -115.73707896081736
    Total Energy =                       -115.7370789608173567
  Basis Set: CC-PV(Q+D)Z
    Blend: CC-PV(Q+D)Z
  Basis Set: (CC-PV(Q+D)Z AUX)
    Blend: CC-PVQZ-JKFIT
  @DF-RKS Final Energy:  -115.73708686398129
    Total Energy =                       -115.7370868639812898
  @DF-RKS Final Energy:  -115.73707803268373
    Total Energy =                       -115.7370780326837263
  @DF-RKS Final Energy:  -115.73708908252071
    Total Energy =                       -115.7370890825207113
  @DF-RKS Final Energy:  -115.73706993838604
    Total Energy =                       -115.7370699383860426
  @DF-RKS Final Energy:  -115.73708085393112
    Total Energy =                       -115.7370808539311184
  @DF-RKS Final Energy:  -115.73708335922724
    Total Energy =                       -115.7370833592272419
  @DF-RKS Final Energy:  -115.73708276403545
    Total Energy =                       -115.7370827640354491
  @DF-RKS Final Energy:  -115.73708134535445
    Total Energy =                       -115.7370813453544685
  @DF-RKS Final Energy:  -115.73707601109568
    Total Energy =                       -115.7370760110956667
  @DF-RKS Final Energy:  -115.73708837964197
    Total Energy =                       -115.7370883796419889
  @DF-RKS Final Energy:  -115.73706995867387
    Total Energy =                       -115.7370699586738567
  @DF-RKS Final Energy:  -115.73709003658310
    Total Energy =                       -115.7370900365830977
  @DF-RKS Final Energy:  -115.73707924405164
    Total Energy =                       -115.7370792440516425
  @DF-RKS Final Energy:  -115.73707289529563
    Total Energy =                       -115.7370728952956256
  @DF-RKS Final Energy:  -115.73710567292072
    Total Energy =                       -115.7371056729207197
  @DF-RKS Final Energy:  -115.73710281377043
    Total Energy =                       -115.7371028137704343
  @DF-RKS Final Energy:  -115.73710461518526
    Total Energy =                       -115.7371046151852596
  **** Optimization is complete! (in 3 steps) ****
    Final optimized geometry and variables:
  @DF-RKS Final Energy:  -115.73709965399819
    Total Energy =                       -115.7370996539981860
  @DF-RKS Final Energy:  -115.73709910643737
    Total Energy =                       -115.7370991064373982
  @DF-RKS Final Energy:  -115.73709677225999
    Total Energy =                       -115.7370967722599886
  @DF-RKS Final Energy:  -115.73709763110735
    Total Energy =                       -115.7370976311073463
  @DF-RKS Final Energy:  -115.73710569551766
    Total Energy =                       -115.7371056955176556
  @DF-RKS Final Energy:  -115.73710624031509
    Total Energy =                       -115.7371062403150859
  @DF-RKS Final Energy:  -115.73710659545493
    Total Energy =                       -115.7371065954549323
  @DF-RKS Final Energy:  -115.73710555990644
    Total Energy =                       -115.7371055599064533
  @DF-RKS Final Energy:  -115.73710303376376
    Total Energy =                       -115.7371030337637450
  @DF-RKS Final Energy:  -115.73710303401003
    Total Energy =                       -115.7371030340100333
  @DF-RKS Final Energy:  -115.73710651905100
    Total Energy =                       -115.7371065190509825
  @DF-RKS Final Energy:  -115.73710651880195
    Total Energy =                       -115.7371065188019372
  @DF-RKS Final Energy:  -115.73710712076900
    Total Energy =                       -115.7371071207689823
  @DF-RKS Final Energy:  -115.73710712062518
    Total Energy =                       -115.7371071206251827
  @DF-RKS Final Energy:  -115.73710631228349
    Total Energy =                       -115.7371063122834869
  @DF-RKS Final Energy:  -115.73710631242233
    Total Energy =                       -115.7371063124223269
  Basis Set: CC-PV(Q+D)Z
    Blend: CC-PV(Q+D)Z
  Basis Set: (CC-PV(Q+D)Z AUX)
    Blend: CC-PVQZ-JKFIT
  @DF-RKS Final Energy:  -115.73710549128688
    Total Energy =                       -115.7371054912868829
  Basis Set: CC-PV(Q+D)Z
    Blend: CC-PV(Q+D)Z
  Basis Set: (CC-PV(Q+D)Z AUX)
    Blend: CC-PVQZ-JKFIT
  @DF-RKS Final Energy:  -115.73710549126645
    Total Energy =                       -115.7371054912664619
  Multiplicity = 1
  Basis Set: CC-PV(Q+D)Z
    Blend: CC-PV(Q+D)Z
  Basis Set: (CC-PV(Q+D)Z AUX)
    Blend: CC-PVQZ-JKFIT
  @DF-RKS Final Energy:  -115.73710230911378
    Total Energy =                       -115.7371023091137801
    Molecular point group: c1

    Geometry (in Angstrom), charge = 0, multiplicity = 1:

       Center              X                  Y                   Z               Mass
    ------------   -----------------  -----------------  -----------------  -----------------
         C           -0.031926137859     0.726118636733    -0.000000000000    12.000000000000
         H           -1.077468162721     1.035086667124    -0.000000000000     1.007825032230
         H            0.449109846832     1.140249059306     0.891117068634     1.007825032230
         H            0.451372531822     1.144058525439    -0.893159062478     1.007825032230
         O           -0.020954019957    -0.691555716057     0.000201762598    15.994914619570
         H            0.889680340648    -0.989673400410    -0.001160125006     1.007825032230

  Charge       = 0
  Multiplicity = 1
  Basis Set: CC-PV(Q+D)Z
    Blend: CC-PV(Q+D)Z
  Basis Set: (CC-PV(Q+D)Z AUX)
    Blend: CC-PVQZ-JKFIT

    Orbital Energies [Eh]
    ---------------------

    Doubly Occupied:

       1A    -19.207730     2A    -10.308016     3A     -1.149201
       4A     -0.809653     5A     -0.621001     6A     -0.552949
       7A     -0.535703     8A     -0.444343     9A     -0.384233

  @DF-RKS Final Energy:  -115.73710230886003

   => Energetics <=

    Nuclear Repulsion Energy =             40.3382542062000624
    One-Electron Energy =                -237.0268800731254828
    Two-Electron Energy =                  91.5949537841804187
    DFT Exchange-Correlation Energy =     -10.7170585583434068
    Empirical Dispersion Energy =           0.0000000000000000
    VV10 Nonlocal Energy =                  0.0736283322283696
    Total Energy =                       -115.7371023088600310

  Dipole Moment: [D]
     X:     1.3575      Y:     0.9472      Z:     0.0006     Total:     1.6553

  Vibration                       7                   8                   9
  Freq [cm^-1]                 289.6941           1068.9039           1100.6793
  Irrep                          App                  Ap                  Ap
  Reduced mass [u]              1.0704              1.3719              3.0017
  Force const [mDyne/A]         0.0529              0.9236              2.1426

  Vibration                       10                  11                  12
  Freq [cm^-1]                1179.6890           1377.5201           1486.3639
  Irrep                          App                  Ap                  Ap
  Reduced mass [u]              1.2710              1.2894              1.1442
  Force const [mDyne/A]         1.0422              1.4416              1.4893

  Vibration                       13                  14                  15
  Freq [cm^-1]                1501.4961           1514.2784           3017.7957
  Irrep                          App                  Ap                  Ap
  Reduced mass [u]              1.0460              1.0449              1.0353
  Force const [mDyne/A]         1.3894              1.4116              5.5552

  Vibration                       16                  17                  18
  Freq [cm^-1]                3071.5753           3135.9378           3892.5202
  Irrep                          App                  Ap                  Ap
  Reduced mass [u]              1.1059              1.0993              1.0666
  Force const [mDyne/A]         6.1473              6.3695              9.5215

  ==> Thermochemistry Components <==

  Entropy, S
    Electronic S            0.000 [cal/(mol K)]        0.000 [J/(mol K)]       0.00000000 [mEh/K] (multiplicity = 1)
    Translational S        36.324 [cal/(mol K)]      151.980 [J/(mol K)]       0.05788598 [mEh/K] (mol. weight = 32.0262 [u], P = 101325.00 [Pa])
    Rotational S           18.980 [cal/(mol K)]       79.413 [J/(mol K)]       0.03024672 [mEh/K] (symmetry no. = 1)
    Vibrational S           1.709 [cal/(mol K)]        7.149 [J/(mol K)]       0.00272292 [mEh/K]
  Total S                  57.013 [cal/(mol K)]      238.541 [J/(mol K)]       0.09085563 [mEh/K]
  Correction S              0.000 [cal/(mol K)]        0.000 [J/(mol K)]       0.00000000 [mEh/K]

  Constant volume heat capacity, Cv
    Electronic Cv           0.000 [cal/(mol K)]        0.000 [J/(mol K)]       0.00000000 [mEh/K]
    Translational Cv        2.981 [cal/(mol K)]       12.472 [J/(mol K)]       0.00475022 [mEh/K]
    Rotational Cv           2.981 [cal/(mol K)]       12.472 [J/(mol K)]       0.00475022 [mEh/K]
    Vibrational Cv          2.837 [cal/(mol K)]       11.872 [J/(mol K)]       0.00452182 [mEh/K]
  Total Cv                  8.799 [cal/(mol K)]       36.815 [J/(mol K)]       0.01402225 [mEh/K]
  Correction Cv             0.000 [cal/(mol K)]        0.000 [J/(mol K)]       0.00000000 [mEh/K]

  Constant pressure heat capacity, Cp
    Electronic Cp           0.000 [cal/(mol K)]        0.000 [J/(mol K)]       0.00000000 [mEh/K]
    Translational Cp        4.968 [cal/(mol K)]       20.786 [J/(mol K)]       0.00791703 [mEh/K]
    Rotational Cp           2.981 [cal/(mol K)]       12.472 [J/(mol K)]       0.00475022 [mEh/K]
    Vibrational Cp          2.837 [cal/(mol K)]       11.872 [J/(mol K)]       0.00452182 [mEh/K]
  Total Cp                 10.786 [cal/(mol K)]       45.130 [J/(mol K)]       0.01718906 [mEh/K]
  Correction Cp             0.000 [cal/(mol K)]        0.000 [J/(mol K)]       0.00000000 [mEh/K]

  ==> Thermochemistry Energy Analysis <==

  Raw electronic energy, E0
  Total E0, Electronic energy at well bottom at 0 [K]                 -115.73710758 [Eh]

  Zero-point energy, ZPE_vib = Sum_i nu_i / 2
    Electronic ZPE          0.000 [kcal/mol]        0.000 [kJ/mol]       0.00000000 [Eh]
    Translational ZPE       0.000 [kcal/mol]        0.000 [kJ/mol]       0.00000000 [Eh]
    Rotational ZPE          0.000 [kcal/mol]        0.000 [kJ/mol]       0.00000000 [Eh]
    Vibrational ZPE        32.360 [kcal/mol]      135.396 [kJ/mol]       0.05156964 [Eh]       11318.227 [cm^-1]
  Correction ZPE           32.360 [kcal/mol]      135.396 [kJ/mol]       0.05156964 [Eh]       11318.227 [cm^-1]
  Total ZPE, Electronic energy at 0 [K]                               -115.68553794 [Eh]

  Thermal Energy, E (includes ZPE)
    Electronic E            0.000 [kcal/mol]        0.000 [kJ/mol]       0.00000000 [Eh]
    Translational E         0.889 [kcal/mol]        3.718 [kJ/mol]       0.00141628 [Eh]
    Rotational E            0.889 [kcal/mol]        3.718 [kJ/mol]       0.00141628 [Eh]
    Vibrational E          32.691 [kcal/mol]      136.780 [kJ/mol]       0.05209693 [Eh]
  Correction E             34.469 [kcal/mol]      144.217 [kJ/mol]       0.05492949 [Eh]
  Total E, Electronic energy at  298.15 [K]                           -115.68217809 [Eh]

  Enthalpy, H_trans = E_trans + k_B * T
    Electronic H            0.000 [kcal/mol]        0.000 [kJ/mol]       0.00000000 [Eh]
    Translational H         1.481 [kcal/mol]        6.197 [kJ/mol]       0.00236046 [Eh]
    Rotational H            0.889 [kcal/mol]        3.718 [kJ/mol]       0.00141628 [Eh]
    Vibrational H          32.691 [kcal/mol]      136.780 [kJ/mol]       0.05209693 [Eh]
  Correction H             35.061 [kcal/mol]      146.696 [kJ/mol]       0.05587367 [Eh]
  Total H, Enthalpy at  298.15 [K]                                    -115.68123391 [Eh]

  Gibbs free energy, G = H - T * S
    Electronic G            0.000 [kcal/mol]        0.000 [kJ/mol]       0.00000000 [Eh]
    Translational G        -9.349 [kcal/mol]      -39.115 [kJ/mol]      -0.01489824 [Eh]
    Rotational G           -4.770 [kcal/mol]      -19.958 [kJ/mol]      -0.00760178 [Eh]
    Vibrational G          32.182 [kcal/mol]      134.649 [kJ/mol]       0.05128509 [Eh]
  Correction G             18.063 [kcal/mol]       75.575 [kJ/mol]       0.02878507 [Eh]
  Total G, Free enthalpy at  298.15 [K]                               -115.70832251 [Eh]

*** Psi4 exiting successfully. Buy a developer a beer!
