                               Psi4 1.3.2 release

  ==> Input File <==

--------------------------------------------------------------------------
memory 144 GB

molecule {
0 3
S 0.0000000000 0.0000000000 0.0000000000
S 0.0000000000 0.0000000000 1.8968845900
}

set reference uks
set dynamic_level 1
set basis cc-pV(Q+d)Z

optimize("wB97X-V")
frequencies("wB97X-V")
--------------------------------------------------------------------------

    Molecular point group: d2h
  Charge       = 0
  Multiplicity = 3
  Basis Set: CC-PV(Q+D)Z
    Blend: CC-PV(Q+D)Z
  Basis Set: (CC-PV(Q+D)Z AUX)
    Blend: CC-PVQZ-JKFIT
  @DF-UKS Final Energy:  -796.28402900603805
    Total Energy =                       -796.2840290060380539
    Molecular point group: d2h
  Basis Set: CC-PV(Q+D)Z
    Blend: CC-PV(Q+D)Z
  Basis Set: (CC-PV(Q+D)Z AUX)
    Blend: CC-PVQZ-JKFIT
  @DF-UKS Final Energy:  -796.28401034416606
    Total Energy =                       -796.2840103441662905
  Basis Set: CC-PV(Q+D)Z
    Blend: CC-PV(Q+D)Z
  Basis Set: (CC-PV(Q+D)Z AUX)
    Blend: CC-PVQZ-JKFIT
  @DF-UKS Final Energy:  -796.28404714217231
    Total Energy =                       -796.2840471421723123
  Basis Set: CC-PV(Q+D)Z
    Blend: CC-PV(Q+D)Z
  Basis Set: (CC-PV(Q+D)Z AUX)
    Blend: CC-PVQZ-JKFIT
  @DF-UKS Final Energy:  -796.28431349584366
    Total Energy =                       -796.2843134958437759
  @DF-UKS Final Energy:  -796.28430771063904
    Total Energy =                       -796.2843077106390410
  @DF-UKS Final Energy:  -796.28431871598934
    Total Energy =                       -796.2843187159891158
  @DF-UKS Final Energy:  -796.28433991774318
    Total Energy =                       -796.2843399177432957
  @DF-UKS Final Energy:  -796.28433992155135
    Total Energy =                       -796.2843399215514637
  @DF-UKS Final Energy:  -796.28433933141571
    Total Energy =                       -796.2843393314157083
  **** Optimization is complete! (in 3 steps) ****
    Final optimized geometry and variables:
  @DF-UKS Final Energy:  -796.28433991774375
    Total Energy =                       -796.2843399177436368
  @DF-UKS Final Energy:  -796.28433992155135
    Total Energy =                       -796.2843399215514637
  Basis Set: CC-PV(Q+D)Z
    Blend: CC-PV(Q+D)Z
  Basis Set: (CC-PV(Q+D)Z AUX)
    Blend: CC-PVQZ-JKFIT
  @DF-UKS Final Energy:  -796.28433933141582
    Total Energy =                       -796.2843393314157083
  Basis Set: CC-PV(Q+D)Z
    Blend: CC-PV(Q+D)Z
  Basis Set: (CC-PV(Q+D)Z AUX)
    Blend: CC-PVQZ-JKFIT
  @DF-UKS Final Energy:  -796.28433991774375
    Total Energy =                       -796.2843399177437504
  Multiplicity = 3
  Basis Set: CC-PV(Q+D)Z
    Blend: CC-PV(Q+D)Z
  Basis Set: (CC-PV(Q+D)Z AUX)
    Blend: CC-PVQZ-JKFIT
  @DF-UKS Final Energy:  -796.28433992155124
    Total Energy =                       -796.2843399215514637
    Molecular point group: d2h

    Geometry (in Angstrom), charge = 0, multiplicity = 3:

       Center              X                  Y                   Z               Mass
    ------------   -----------------  -----------------  -----------------  -----------------
         S            0.000000000000     0.000000000000    -0.936949185881    31.972071174400
         S            0.000000000000     0.000000000000     0.936949185881    31.972071174400

  Charge       = 0
  Multiplicity = 3
  Basis Set: CC-PV(Q+D)Z
    Blend: CC-PV(Q+D)Z
  Basis Set: (CC-PV(Q+D)Z AUX)
    Blend: CC-PVQZ-JKFIT

    Orbital Energies [Eh]
    ---------------------

    Alpha Occupied:

       1B1u  -88.943619     1Ag   -88.943614     2Ag    -8.096753
       2B1u   -8.096547     1B3u   -6.051795     1B2u   -6.051795
       1B2g   -6.051738     1B3g   -6.051738     3Ag    -6.051261
       3B1u   -6.050353     4Ag    -0.976539     4B1u   -0.754819
       5Ag    -0.502310     2B3u   -0.491860     2B2u   -0.491860
       2B2g   -0.341681     2B3g   -0.341681

    Alpha Virtual:

       5B1u    0.076226     6Ag     0.205277     6B1u    0.221483
       3B3u    0.233879     3B2u    0.233879     7Ag     0.261425
       8Ag     0.269139     1B1g    0.269140     3B2g    0.308360
       3B3g    0.308360     4B3u    0.310283     4B2u    0.310283
       7B1u    0.405421     1Au     0.405423     8B1u    0.487040
       9Ag     0.559965     4B2g    0.611224     4B3g    0.611224
       9B1u    0.735611     5B2u    0.919212     5B3u    0.919212
      10Ag     0.942861     2B1g    0.974058    11Ag     0.974058
       6B2u    1.042608     6B3u    1.042608    12Ag     1.053250
       3B1g    1.053253    10B1u    1.053863     2Au     1.053865
       5B3g    1.153834     5B2g    1.153834    13Ag     1.194608
      11B1u    1.199325     6B3g    1.204078     6B2g    1.204078
       7B2u    1.281843     7B3u    1.281843     7B3g    1.306530
       7B2g    1.306530     8B2u    1.400956     8B3u    1.400956
      12B1u    1.471119     3Au     1.471128    13B1u    1.490816
      14B1u    1.706250    14Ag     1.749714     8B3g    1.892854
       8B2g    1.892854    15Ag     2.043161    15B1u    2.434822
      16Ag     2.615395     4B1g    2.615404     9B2u    2.695541
       9B3u    2.695541    17Ag     2.728944    16B1u    2.739247
       4Au     2.739264    10B2u    2.810804    10B3u    2.810804
      18Ag     2.827628     5B1g    2.827630    11B3u    2.844275
      11B2u    2.844275     9B2g    2.900063     9B3g    2.900063
      19Ag     2.991599     6B1g    2.991622    17B1u    3.065338
       5Au     3.065362    20Ag     3.132113    12B3u    3.182569
      12B2u    3.182569    10B2g    3.200579    10B3g    3.200579
       7B1g    3.272929    21Ag     3.272930    18B1u    3.309850
      11B2g    3.325435    11B3g    3.325435     6Au     3.344248
      19B1u    3.344251    12B2g    3.503905    12B3g    3.503905
      20B1u    3.582344    13B2u    3.754826    13B3u    3.754826
       7Au     3.831638    21B1u    3.831639    22Ag     3.954528
      22B1u    4.538453    13B3g    4.581073    13B2g    4.581073
      14B2u    5.233850    14B3u    5.233850    14B3g    5.378862
      14B2g    5.378862    23Ag     5.910725    23B1u    6.728795
       8B1g    8.663456    24Ag     8.663505     8Au     8.725533
      24B1u    8.725582    15B3u    8.733915    15B2u    8.733915
      15B2g    8.979761    15B3g    8.979761    25B1u    9.078794
      25Ag     9.156510    26Ag    16.974154    26B1u   19.250617

    Beta Occupied:

       1B1u  -88.938153     1Ag   -88.938151     2Ag    -8.091541
       2B1u   -8.091257     3Ag    -6.047828     3B1u   -6.046908
       1B3u   -6.040649     1B2u   -6.040649     1B2g   -6.040573
       1B3g   -6.040573     4Ag    -0.947806     4B1u   -0.686815
       5Ag    -0.477530     2B3u   -0.429620     2B2u   -0.429620

    Beta Virtual:

       2B3g   -0.053545     2B2g   -0.053545     5B1u    0.089716
       6Ag     0.208259     6B1u    0.232416     3B3u    0.239901
       3B2u    0.239901     7Ag     0.266761     8Ag     0.289170
       1B1g    0.289171     3B2g    0.323310     3B3g    0.323310
       4B3u    0.343723     4B2u    0.343723     7B1u    0.444719
       1Au     0.444721     8B1u    0.498239     9Ag     0.576892
       4B3g    0.628344     4B2g    0.628344     9B1u    0.742814
       5B2u    0.929059     5B3u    0.929059    10Ag     0.948985
       2B1g    0.992961    11Ag     0.992961     6B2u    1.059179
       6B3u    1.059179    12Ag     1.076275     3B1g    1.076278
      10B1u    1.083260     2Au     1.083262     5B3g    1.171102
       5B2g    1.171102    13Ag     1.204447    11B1u    1.215065
       6B3g    1.227191     6B2g    1.227191     7B2u    1.307712
       7B3u    1.307712     7B3g    1.331066     7B2g    1.331066
       8B2u    1.415632     8B3u    1.415632    12B1u    1.488035
       3Au     1.488044    13B1u    1.500424    14B1u    1.720884
      14Ag     1.771137     8B3g    1.906032     8B2g    1.906032
      15Ag     2.052004    15B1u    2.453416    16Ag     2.635808
       4B1g    2.635818     9B2u    2.706959     9B3u    2.706959
      17Ag     2.743534    16B1u    2.762815     4Au     2.762833
      10B2u    2.828872    10B3u    2.828872    18Ag     2.847699
       5B1g    2.847701    11B3u    2.869980    11B2u    2.869980
       9B2g    2.915179     9B3g    2.915179    19Ag     3.029469
       6B1g    3.029492    17B1u    3.104397     5Au     3.104421
      20Ag     3.147600    12B3u    3.227101    12B2u    3.227101
      10B2g    3.233556    10B3g    3.233556     7B1g    3.304530
      21Ag     3.304535    18B1u    3.322367    11B2g    3.365276
      11B3g    3.365276     6Au     3.372433    19B1u    3.372440
      12B2g    3.526530    12B3g    3.526530    20B1u    3.601806
      13B2u    3.777213    13B3u    3.777213     7Au     3.855088
      21B1u    3.855091    22Ag     3.966341    22B1u    4.547573
      13B3g    4.596301    13B2g    4.596301    14B2u    5.256746
      14B3u    5.256746    14B3g    5.401419    14B2g    5.401419
      23Ag     5.917231    23B1u    6.736213     8B1g    8.677803
      24Ag     8.677855     8Au     8.740517    24B1u    8.740568
      15B3u    8.742152    15B2u    8.742152    15B2g    8.989998
      15B3g    8.989998    25B1u    9.087605    25Ag     9.166091
      26Ag    16.984773    26B1u   19.260721

    Final Occupation by Irrep:
             Ag   B1g   B2g   B3g    Au   B1u   B2u   B3u
    DOCC [     5,    0,    1,    1,    0,    4,    2,    2 ]
    SOCC [     0,    0,    1,    1,    0,    0,    0,    0 ]

  @DF-UKS Final Energy:  -796.28433933141582

   => Energetics <=

    Nuclear Repulsion Energy =             72.2928030531809611
    One-Electron Energy =               -1243.1770733478156217
    Two-Electron Energy =                 413.1872764036156696
    DFT Exchange-Correlation Energy =     -38.7209480816661085
    Empirical Dispersion Energy =           0.0000000000000000
    VV10 Nonlocal Energy =                  0.1336026412692931
    Total Energy =                       -796.2843393314159357

  UHF NO Occupations:
  HONO-2 :    2B2u 1.9969087
  HONO-1 :    2B3g 1.0000000
  HONO-0 :    2B2g 1.0000000
  LUNO+0 :    3B2u 0.0030913
  LUNO+1 :    3B3u 0.0030913
  LUNO+2 :    5B1u 0.0008064
  LUNO+3 :    6 Ag 0.0005325

Computation Completed

Properties will be evaluated at   0.000000,   0.000000,   0.000000 [a0]

Properties computed using the SCF density matrix

  Nuclear Dipole Moment: [e a0]
     X:     0.0000      Y:     0.0000      Z:     0.0000

  Electronic Dipole Moment: [e a0]
     X:     0.0000      Y:     0.0000      Z:     0.0000

  Dipole Moment: [e a0]
     X:     0.0000      Y:     0.0000      Z:     0.0000     Total:     0.0000

  Dipole Moment: [D]
     X:     0.0000      Y:     0.0000      Z:     0.0000     Total:     0.0000

*** tstop() called on bp1-compute00113.data.bp.acrc.priv at Tue Apr 27 17:07:56 2021
Module time:
	user time   =     166.82 seconds =       2.78 minutes
	system time =       9.96 seconds =       0.17 minutes
	total time  =          8 seconds =       0.13 minutes
Total time:
	user time   =    2002.17 seconds =      33.37 minutes
	system time =      99.15 seconds =       1.65 minutes
	total time  =         91 seconds =       1.52 minutes

         ----------------------------------------------------------
                                   FINDIF
                     R. A. King and Jonathon Misiewicz
         ---------------------------------------------------------

  Computing second-derivative from energies using projected,
  symmetry-adapted, cartesian coordinates.

  3 energies passed in, including the reference geometry.
    Using 3-point formula.
    Energy without displacement: -796.2843399177
    Check energies below for precision!
    0: -1 :      -796.2843399216
    0: 1  :      -796.2843393314

-------------------------------------------------------------

  ==> Harmonic Vibrational Analysis <==

  non-mass-weighted Hessian:       Symmetric? True   Hermitian? True   Lin Dep Dim?  5 (0)
  projection of translations (True) and rotations (True) removed 5 degrees of freedom (5)
  total projector:                 Symmetric? True   Hermitian? True   Lin Dep Dim?  5 (5)
  mass-weighted Hessian:           Symmetric? True   Hermitian? True   Lin Dep Dim?  5 (0)
  pre-proj  low-frequency mode:    0.0000  [cm^-1]
  pre-proj  low-frequency mode:    0.0000  [cm^-1]
  pre-proj  low-frequency mode:    0.0000  [cm^-1]
  pre-proj  low-frequency mode:    0.0000  [cm^-1]
  pre-proj  low-frequency mode:    0.0000  [cm^-1]
  pre-proj  all modes:['0.0000' '0.0000' '0.0000' '0.0000' '0.0000' '784.6751']
  projected mass-weighted Hessian: Symmetric? True   Hermitian? True   Lin Dep Dim?  5 (5)
  post-proj low-frequency mode:    0.0000i [cm^-1] (TR)
  post-proj low-frequency mode:    0.0000  [cm^-1] (TR)
  post-proj low-frequency mode:    0.0000  [cm^-1] (TR)
  post-proj low-frequency mode:    0.0000  [cm^-1] (TR)
  post-proj low-frequency mode:    0.0000  [cm^-1] (TR)
  post-proj  all modes:['0.0000i' '0.0000' '0.0000' '0.0000' '0.0000' '784.6751']

  Vibration                       6
  Freq [cm^-1]                 784.6751
  Irrep                           Ag
  Reduced mass [u]             31.9721
  Force const [mDyne/A]        11.5985
  Turning point v=0 [a0]        0.0693
  RMS dev v=0 [a0 u^1/2]        0.2770
  Char temp [K]               1128.9727
  ----------------------------------------------------------------------------------
      1   S                0.00  0.00  0.71
      2   S                0.00  0.00 -0.71

  ==> Thermochemistry Components <==

  Entropy, S
    Electronic S            2.183 [cal/(mol K)]        9.134 [J/(mol K)]       0.00347910 [mEh/K] (multiplicity = 3)
    Translational S        38.385 [cal/(mol K)]      160.603 [J/(mol K)]       0.06117054 [mEh/K] (mol. weight = 63.9441 [u], P = 101325.00 [Pa])
    Rotational S           13.601 [cal/(mol K)]       56.907 [J/(mol K)]       0.02167465 [mEh/K] (symmetry no. = 2)
    Vibrational S           0.220 [cal/(mol K)]        0.921 [J/(mol K)]       0.00035081 [mEh/K]
  Total S                  54.389 [cal/(mol K)]      227.565 [J/(mol K)]       0.08667510 [mEh/K]
  Correction S              0.000 [cal/(mol K)]        0.000 [J/(mol K)]       0.00000000 [mEh/K]

  Constant volume heat capacity, Cv
    Electronic Cv           0.000 [cal/(mol K)]        0.000 [J/(mol K)]       0.00000000 [mEh/K]
    Translational Cv        2.981 [cal/(mol K)]       12.472 [J/(mol K)]       0.00475022 [mEh/K]
    Rotational Cv           1.987 [cal/(mol K)]        8.314 [J/(mol K)]       0.00316681 [mEh/K]
    Vibrational Cv          0.676 [cal/(mol K)]        2.830 [J/(mol K)]       0.00107781 [mEh/K]
  Total Cv                  5.644 [cal/(mol K)]       23.616 [J/(mol K)]       0.00899484 [mEh/K]
  Correction Cv             0.000 [cal/(mol K)]        0.000 [J/(mol K)]       0.00000000 [mEh/K]

  Constant pressure heat capacity, Cp
    Electronic Cp           0.000 [cal/(mol K)]        0.000 [J/(mol K)]       0.00000000 [mEh/K]
    Translational Cp        4.968 [cal/(mol K)]       20.786 [J/(mol K)]       0.00791703 [mEh/K]
    Rotational Cp           1.987 [cal/(mol K)]        8.314 [J/(mol K)]       0.00316681 [mEh/K]
    Vibrational Cp          0.676 [cal/(mol K)]        2.830 [J/(mol K)]       0.00107781 [mEh/K]
  Total Cp                  7.632 [cal/(mol K)]       31.930 [J/(mol K)]       0.01216165 [mEh/K]
  Correction Cp             0.000 [cal/(mol K)]        0.000 [J/(mol K)]       0.00000000 [mEh/K]

  ==> Thermochemistry Energy Analysis <==

  Raw electronic energy, E0
  Total E0, Electronic energy at well bottom at 0 [K]                 -796.28433992 [Eh]

  Zero-point energy, ZPE_vib = Sum_i nu_i / 2
    Electronic ZPE          0.000 [kcal/mol]        0.000 [kJ/mol]       0.00000000 [Eh]
    Translational ZPE       0.000 [kcal/mol]        0.000 [kJ/mol]       0.00000000 [Eh]
    Rotational ZPE          0.000 [kcal/mol]        0.000 [kJ/mol]       0.00000000 [Eh]
    Vibrational ZPE         1.122 [kcal/mol]        4.693 [kJ/mol]       0.00178762 [Eh]         392.338 [cm^-1]
  Correction ZPE            1.122 [kcal/mol]        4.693 [kJ/mol]       0.00178762 [Eh]         392.338 [cm^-1]
  Total ZPE, Electronic energy at 0 [K]                               -796.28255230 [Eh]

  Thermal Energy, E (includes ZPE)
    Electronic E            0.000 [kcal/mol]        0.000 [kJ/mol]       0.00000000 [Eh]
    Translational E         0.889 [kcal/mol]        3.718 [kJ/mol]       0.00141628 [Eh]
    Rotational E            0.592 [kcal/mol]        2.479 [kJ/mol]       0.00094418 [Eh]
    Vibrational E           1.174 [kcal/mol]        4.911 [kJ/mol]       0.00187056 [Eh]
  Correction E              2.655 [kcal/mol]       11.109 [kJ/mol]       0.00423102 [Eh]
  Total E, Electronic energy at  298.15 [K]                           -796.28010889 [Eh]

  Enthalpy, H_trans = E_trans + k_B * T
    Electronic H            0.000 [kcal/mol]        0.000 [kJ/mol]       0.00000000 [Eh]
    Translational H         1.481 [kcal/mol]        6.197 [kJ/mol]       0.00236046 [Eh]
    Rotational H            0.592 [kcal/mol]        2.479 [kJ/mol]       0.00094418 [Eh]
    Vibrational H           1.174 [kcal/mol]        4.911 [kJ/mol]       0.00187056 [Eh]
  Correction H              3.247 [kcal/mol]       13.588 [kJ/mol]       0.00517521 [Eh]
  Total H, Enthalpy at  298.15 [K]                                    -796.27916471 [Eh]

  Gibbs free energy, G = H - T * S
    Electronic G           -0.651 [kcal/mol]       -2.723 [kJ/mol]      -0.00103729 [Eh]
    Translational G        -9.963 [kcal/mol]      -41.686 [kJ/mol]      -0.01587754 [Eh]
    Rotational G           -3.463 [kcal/mol]      -14.488 [kJ/mol]      -0.00551811 [Eh]
    Vibrational G           1.108 [kcal/mol]        4.637 [kJ/mol]       0.00176597 [Eh]
  Correction G            -12.969 [kcal/mol]      -54.261 [kJ/mol]      -0.02066697 [Eh]
  Total G, Free enthalpy at  298.15 [K]                               -796.30500689 [Eh]

    Psi4 stopped on: Tuesday, 27 April 2021 05:07PM
    Psi4 wall time for execution: 0:01:30.80

*** Psi4 exiting successfully. Buy a developer a beer!
