                               Psi4 1.3.2 release

  ==> Input File <==

--------------------------------------------------------------------------
memory 144 GB

molecule {
0 3
S 0.0000000000 0.0000000000 0.0000000000
O 0.0000000000 0.0000000000 1.4862145500
}

set reference uks
set dynamic_level 1
set basis cc-pV(Q+d)Z

optimize("wB97X-V")
frequencies("wB97X-V")
--------------------------------------------------------------------------

    Molecular point group: c2v
  Charge       = 0
  Multiplicity = 3
  Basis Set: CC-PV(Q+D)Z
    Blend: CC-PV(Q+D)Z
  Basis Set: (CC-PV(Q+D)Z AUX)
    Blend: CC-PVQZ-JKFIT
  @DF-UKS Final Energy:  -473.33256059822611
    Total Energy =                       -473.3325605982261095
    Molecular point group: c2v
  Basis Set: CC-PV(Q+D)Z
    Blend: CC-PV(Q+D)Z
  Basis Set: (CC-PV(Q+D)Z AUX)
    Blend: CC-PVQZ-JKFIT
  @DF-UKS Final Energy:  -473.33254269614383
    Total Energy =                       -473.3325426961437756
  Basis Set: CC-PV(Q+D)Z
    Blend: CC-PV(Q+D)Z
  Basis Set: (CC-PV(Q+D)Z AUX)
    Blend: CC-PVQZ-JKFIT
  @DF-UKS Final Energy:  -473.33257716951556
    Total Energy =                       -473.3325771695155595
  Basis Set: CC-PV(Q+D)Z
    Blend: CC-PV(Q+D)Z
  Basis Set: (CC-PV(Q+D)Z AUX)
    Blend: CC-PVQZ-JKFIT
  @DF-UKS Final Energy:  -473.33266119317227
    Total Energy =                       -473.3326611931721573
  @DF-UKS Final Energy:  -473.33265553268183
    Total Energy =                       -473.3326555326817697
  @DF-UKS Final Energy:  -473.33266546473828
    Total Energy =                       -473.3326654647382838
  @DF-UKS Final Energy:  -473.33267001820047
    Total Energy =                       -473.3326700182004743
  @DF-UKS Final Energy:  -473.33266946215582
    Total Energy =                       -473.3326694621557067
  @DF-UKS Final Energy:  -473.33266916134755
    Total Energy =                       -473.3326691613475532
  **** Optimization is complete! (in 3 steps) ****
    Final optimized geometry and variables:
  @DF-UKS Final Energy:  -473.33267001819939
    Total Energy =                       -473.3326700181995079
  @DF-UKS Final Energy:  -473.33266946215537
    Total Energy =                       -473.3326694621552519
  Basis Set: CC-PV(Q+D)Z
    Blend: CC-PV(Q+D)Z
  Basis Set: (CC-PV(Q+D)Z AUX)
    Blend: CC-PVQZ-JKFIT
  @DF-UKS Final Energy:  -473.33266916134710
    Total Energy =                       -473.3326691613470985
  Basis Set: CC-PV(Q+D)Z
    Blend: CC-PV(Q+D)Z
  Basis Set: (CC-PV(Q+D)Z AUX)
    Blend: CC-PVQZ-JKFIT
  @DF-UKS Final Energy:  -473.33267001820042
    Total Energy =                       -473.3326700182004174
  Multiplicity = 3
  Basis Set: CC-PV(Q+D)Z
    Blend: CC-PV(Q+D)Z
  Basis Set: (CC-PV(Q+D)Z AUX)
    Blend: CC-PVQZ-JKFIT
  @DF-UKS Final Energy:  -473.33266946215605
    Total Energy =                       -473.3326694621559909
    Molecular point group: c2v

    Geometry (in Angstrom), charge = 0, multiplicity = 3:

       Center              X                  Y                   Z               Mass
    ------------   -----------------  -----------------  -----------------  -----------------
         S            0.000000000000     0.000000000000    -0.491892355397    31.972071174400
         O            0.000000000000     0.000000000000     0.983238596201    15.994914619570

  Charge       = 0
  Multiplicity = 3
  Basis Set: CC-PV(Q+D)Z
    Blend: CC-PV(Q+D)Z
  Basis Set: (CC-PV(Q+D)Z AUX)
    Blend: CC-PVQZ-JKFIT

    Orbital Energies [Eh]
    ---------------------

    Alpha Occupied:

       1A1   -88.983616     2A1   -19.283316     3A1    -8.133055
       1B1    -6.088983     1B2    -6.088983     4A1    -6.087278
       5A1    -1.225042     6A1    -0.810279     2B2    -0.575505
       2B1    -0.575505     7A1    -0.566356     3B1    -0.364666
       3B2    -0.364666

    Alpha Virtual:

       8A1     0.087245     9A1     0.255706     4B1     0.257293
       4B2     0.257293    10A1     0.298565     1A2     0.304938
      11A1     0.304939     5B1     0.410719     5B2     0.410719
      12A1     0.439780     6B2     0.565804     6B1     0.565804
      13A1     0.675942    14A1     0.921593     2A2     0.977428
      15A1     0.977430    16A1     0.988367     3A2     0.988368
       7B1     1.005300     7B2     1.005300    17A1     1.091183
       8B1     1.096144     8B2     1.096144     9B1     1.249341
       9B2     1.249341    10B1     1.287091    10B2     1.287091
      18A1     1.304381     4A2     1.409728    19A1     1.409734
      20A1     1.457075    21A1     1.724836    11B2     1.744584
      11B1     1.744584    22A1     2.067513    12B2     2.501695
      12B1     2.501695     5A2     2.648928    23A1     2.648936
      24A1     2.681378    13B1     2.782564    13B2     2.782564
      25A1     2.858457     6A2     2.858458    14B1     2.864364
      14B2     2.864364    15B1     2.958709    15B2     2.958709
       7A2     2.999417    26A1     2.999422    27A1     3.169099
      16B1     3.171509    16B2     3.171509     8A2     3.232524
      28A1     3.232527    17B1     3.382889    17B2     3.382889
      29A1     3.419313    18B1     3.577910    18B2     3.577910
      30A1     3.619253    31A1     3.840761     9A2     3.840762
      32A1     3.879430    10A2     4.081096    33A1     4.081102
      19B2     4.315431    19B1     4.315431    34A1     4.605872
      20B1     4.716718    20B2     4.716718    35A1     4.810825
      21B1     5.442294    21B2     5.442294    36A1     7.167642
      22B1     8.592260    22B2     8.592260    37A1     8.608491
      38A1     8.651281    11A2     8.651317    12A2     8.900276
      39A1     8.900499    23B1     8.923793    23B2     8.923793
      40A1     9.105168    13A2     9.105168    24B2     9.461724
      24B1     9.461724    41A1     9.749188    25B2    10.007694
      25B1    10.007694    42A1    10.744625    26B1    10.965761
      26B2    10.965761    14A2    11.201871    43A1    11.201875
      27B2    11.782023    27B1    11.782023    44A1    11.861542
      45A1    11.997424    15A2    11.997555    28B2    12.277284
      28B1    12.277284    46A1    13.042922    47A1    18.156870
      48A1    40.716323

    Beta Occupied:

       1A1   -88.977284     2A1   -19.264997     3A1    -8.126877
       4A1    -6.083495     1B1    -6.075767     1B2    -6.075767
       5A1    -1.185151     6A1    -0.736329     7A1    -0.532429
       2B1    -0.500149     2B2    -0.500149

    Beta Virtual:

       3B1    -0.035328     3B2    -0.035328     8A1     0.102759
       9A1     0.264634     4B2     0.271294     4B1     0.271294
      10A1     0.311364     1A2     0.340098    11A1     0.340098
       5B1     0.445726     5B2     0.445726    12A1     0.445813
       6B1     0.580669     6B2     0.580669    13A1     0.688671
      14A1     0.931622     2A2     0.997303    15A1     0.997303
      16A1     1.021944     3A2     1.021945     7B1     1.022745
       7B2     1.022745    17A1     1.111586     8B1     1.121303
       8B2     1.121303     9B1     1.274362     9B2     1.274362
      10B2     1.312914    10B1     1.312914    18A1     1.319128
       4A2     1.431984    19A1     1.431990    20A1     1.469447
      21A1     1.740826    11B1     1.761210    11B2     1.761210
      22A1     2.083935    12B1     2.537938    12B2     2.537938
       5A2     2.676574    23A1     2.676580    24A1     2.696869
      13B1     2.804940    13B2     2.804940     6A2     2.876543
      25A1     2.876543    14B1     2.892277    14B2     2.892277
      15B2     2.979212    15B1     2.979212     7A2     3.048235
      26A1     3.048239    27A1     3.190971    16B1     3.224052
      16B2     3.224052     8A2     3.271934    28A1     3.271937
      17B1     3.414227    17B2     3.414227    29A1     3.445940
      18B1     3.604550    18B2     3.604550    30A1     3.640413
      31A1     3.887879     9A2     3.887881    32A1     3.903325
      10A2     4.109003    33A1     4.109008    19B1     4.343086
      19B2     4.343086    34A1     4.623080    20B1     4.740824
      20B2     4.740824    35A1     4.825433    21B1     5.467653
      21B2     5.467653    36A1     7.189000    22B1     8.605948
      22B2     8.605948    37A1     8.623066    38A1     8.669261
      11A2     8.669298    12A2     8.945730    39A1     8.945942
      23B1     8.956915    23B2     8.956915    40A1     9.131766
      13A2     9.131769    24B1     9.484889    24B2     9.484889
      41A1     9.768097    25B1    10.059037    25B2    10.059037
      42A1    10.774903    26B1    11.034988    26B2    11.034988
      14A2    11.251280    43A1    11.251285    27B1    11.816119
      27B2    11.816119    44A1    11.884233    45A1    12.083048
      15A2    12.083169    28B1    12.330041    28B2    12.330041
      46A1    13.077188    47A1    18.169253    48A1    40.743283

    Final Occupation by Irrep:
             A1    A2    B1    B2
    DOCC [     7,    0,    2,    2 ]
    SOCC [     0,    0,    1,    1 ]

  @DF-UKS Final Energy:  -473.33266916134772

   => Energetics <=

    Nuclear Repulsion Energy =             45.9177423484893694
    One-Electron Energy =                -743.9710686173280010
    Two-Electron Energy =                 250.1071586221826806
    DFT Exchange-Correlation Energy =     -25.4873219002395963
    Empirical Dispersion Energy =           0.0000000000000000
    VV10 Nonlocal Energy =                  0.1008203855478260
    Total Energy =                       -473.3326691613477237

  UHF NO Occupations:
  HONO-2 :    2 B2 1.9978425
  HONO-1 :    3 B2 1.0000000
  HONO-0 :    3 B1 1.0000000
  LUNO+0 :    4 B2 0.0021575
  LUNO+1 :    4 B1 0.0021575
  LUNO+2 :    8 A1 0.0011066
  LUNO+3 :    9 A1 0.0002435

Computation Completed

Properties will be evaluated at   0.000000,   0.000000,   0.000000 [a0]

Properties computed using the SCF density matrix

  Nuclear Dipole Moment: [e a0]
     X:     0.0000      Y:     0.0000      Z:    -0.0083

  Electronic Dipole Moment: [e a0]
     X:     0.0000      Y:     0.0000      Z:    -0.6047

  Dipole Moment: [e a0]
     X:     0.0000      Y:     0.0000      Z:    -0.6129     Total:     0.6129

  Dipole Moment: [D]
     X:     0.0000      Y:     0.0000      Z:    -1.5580     Total:     1.5580

*** tstop() called on bp1-compute00140.data.bp.acrc.priv at Tue Apr 27 17:09:23 2021
Module time:
	user time   =     175.00 seconds =       2.92 minutes
	system time =       7.55 seconds =       0.13 minutes
	total time  =          8 seconds =       0.13 minutes
Total time:
	user time   =    2119.96 seconds =      35.33 minutes
	system time =     100.42 seconds =       1.67 minutes
	total time  =         95 seconds =       1.58 minutes

         ----------------------------------------------------------
                                   FINDIF
                     R. A. King and Jonathon Misiewicz
         ---------------------------------------------------------

  Computing second-derivative from energies using projected,
  symmetry-adapted, cartesian coordinates.

  3 energies passed in, including the reference geometry.
    Using 3-point formula.
    Energy without displacement: -473.3326700182
    Check energies below for precision!
    0: -1 :      -473.3326694622
    0: 1  :      -473.3326691613

-------------------------------------------------------------

  ==> Harmonic Vibrational Analysis <==

  non-mass-weighted Hessian:       Symmetric? True   Hermitian? True   Lin Dep Dim?  5 (0)
  projection of translations (True) and rotations (True) removed 5 degrees of freedom (5)
  total projector:                 Symmetric? True   Hermitian? True   Lin Dep Dim?  5 (5)
  mass-weighted Hessian:           Symmetric? True   Hermitian? True   Lin Dep Dim?  5 (0)
  pre-proj  low-frequency mode:    0.0000  [cm^-1]
  pre-proj  low-frequency mode:    0.0000  [cm^-1]
  pre-proj  low-frequency mode:    0.0000  [cm^-1]
  pre-proj  low-frequency mode:    0.0000  [cm^-1]
  pre-proj  low-frequency mode:    0.0000  [cm^-1]
  pre-proj  all modes:['0.0000' '0.0000' '0.0000' '0.0000' '0.0000' '1222.0516']
  projected mass-weighted Hessian: Symmetric? True   Hermitian? True   Lin Dep Dim?  5 (5)
  post-proj low-frequency mode:    0.0000  [cm^-1] (TR)
  post-proj low-frequency mode:    0.0000  [cm^-1] (TR)
  post-proj low-frequency mode:    0.0000  [cm^-1] (TR)
  post-proj low-frequency mode:    0.0000  [cm^-1] (TR)
  post-proj low-frequency mode:    0.0000  [cm^-1] (TR)
  post-proj  all modes:['0.0000' '0.0000' '0.0000' '0.0000' '0.0000' '1222.0516']

  Vibration                       6
  Freq [cm^-1]                1222.0516
  Irrep                           A1
  Reduced mass [u]             19.1932
  Force const [mDyne/A]        16.8879
  Turning point v=0 [a0]        0.0716
  RMS dev v=0 [a0 u^1/2]        0.2219
  Char temp [K]               1758.2601
  ----------------------------------------------------------------------------------
      1   S                0.00  0.00 -0.45
      2   O                0.00  0.00  0.89

  ==> Thermochemistry Components <==

  Entropy, S
    Electronic S            2.183 [cal/(mol K)]        9.134 [J/(mol K)]       0.00347910 [mEh/K] (multiplicity = 3)
    Translational S        37.528 [cal/(mol K)]      157.018 [J/(mol K)]       0.05980487 [mEh/K] (mol. weight = 47.9670 [u], P = 101325.00 [Pa])
    Rotational S           13.223 [cal/(mol K)]       55.326 [J/(mol K)]       0.02107263 [mEh/K] (symmetry no. = 1)
    Vibrational S           0.038 [cal/(mol K)]        0.158 [J/(mol K)]       0.00006015 [mEh/K]
  Total S                  52.972 [cal/(mol K)]      221.636 [J/(mol K)]       0.08441675 [mEh/K]
  Correction S              0.000 [cal/(mol K)]        0.000 [J/(mol K)]       0.00000000 [mEh/K]

  Constant volume heat capacity, Cv
    Electronic Cv           0.000 [cal/(mol K)]        0.000 [J/(mol K)]       0.00000000 [mEh/K]
    Translational Cv        2.981 [cal/(mol K)]       12.472 [J/(mol K)]       0.00475022 [mEh/K]
    Rotational Cv           1.987 [cal/(mol K)]        8.314 [J/(mol K)]       0.00316681 [mEh/K]
    Vibrational Cv          0.191 [cal/(mol K)]        0.799 [J/(mol K)]       0.00030421 [mEh/K]
  Total Cv                  5.159 [cal/(mol K)]       21.585 [J/(mol K)]       0.00822124 [mEh/K]
  Correction Cv             0.000 [cal/(mol K)]        0.000 [J/(mol K)]       0.00000000 [mEh/K]

  Constant pressure heat capacity, Cp
    Electronic Cp           0.000 [cal/(mol K)]        0.000 [J/(mol K)]       0.00000000 [mEh/K]
    Translational Cp        4.968 [cal/(mol K)]       20.786 [J/(mol K)]       0.00791703 [mEh/K]
    Rotational Cp           1.987 [cal/(mol K)]        8.314 [J/(mol K)]       0.00316681 [mEh/K]
    Vibrational Cp          0.191 [cal/(mol K)]        0.799 [J/(mol K)]       0.00030421 [mEh/K]
  Total Cp                  7.146 [cal/(mol K)]       29.899 [J/(mol K)]       0.01138805 [mEh/K]
  Correction Cp             0.000 [cal/(mol K)]        0.000 [J/(mol K)]       0.00000000 [mEh/K]

  ==> Thermochemistry Energy Analysis <==

  Raw electronic energy, E0
  Total E0, Electronic energy at well bottom at 0 [K]                 -473.33267002 [Eh]

  Zero-point energy, ZPE_vib = Sum_i nu_i / 2
    Electronic ZPE          0.000 [kcal/mol]        0.000 [kJ/mol]       0.00000000 [Eh]
    Translational ZPE       0.000 [kcal/mol]        0.000 [kJ/mol]       0.00000000 [Eh]
    Rotational ZPE          0.000 [kcal/mol]        0.000 [kJ/mol]       0.00000000 [Eh]
    Vibrational ZPE         1.747 [kcal/mol]        7.309 [kJ/mol]       0.00278404 [Eh]         611.026 [cm^-1]
  Correction ZPE            1.747 [kcal/mol]        7.309 [kJ/mol]       0.00278404 [Eh]         611.026 [cm^-1]
  Total ZPE, Electronic energy at 0 [K]                               -473.32988598 [Eh]

  Thermal Energy, E (includes ZPE)
    Electronic E            0.000 [kcal/mol]        0.000 [kJ/mol]       0.00000000 [Eh]
    Translational E         0.889 [kcal/mol]        3.718 [kJ/mol]       0.00141628 [Eh]
    Rotational E            0.592 [kcal/mol]        2.479 [kJ/mol]       0.00094418 [Eh]
    Vibrational E           1.757 [kcal/mol]        7.350 [kJ/mol]       0.00279938 [Eh]
  Correction E              3.238 [kcal/mol]       13.547 [kJ/mol]       0.00515984 [Eh]
  Total E, Electronic energy at  298.15 [K]                           -473.32751018 [Eh]

  Enthalpy, H_trans = E_trans + k_B * T
    Electronic H            0.000 [kcal/mol]        0.000 [kJ/mol]       0.00000000 [Eh]
    Translational H         1.481 [kcal/mol]        6.197 [kJ/mol]       0.00236046 [Eh]
    Rotational H            0.592 [kcal/mol]        2.479 [kJ/mol]       0.00094418 [Eh]
    Vibrational H           1.757 [kcal/mol]        7.350 [kJ/mol]       0.00279938 [Eh]
  Correction H              3.830 [kcal/mol]       16.026 [kJ/mol]       0.00610402 [Eh]
  Total H, Enthalpy at  298.15 [K]                                    -473.32656600 [Eh]

  Gibbs free energy, G = H - T * S
    Electronic G           -0.651 [kcal/mol]       -2.723 [kJ/mol]      -0.00103729 [Eh]
    Translational G        -9.708 [kcal/mol]      -40.617 [kJ/mol]      -0.01547036 [Eh]
    Rotational G           -3.350 [kcal/mol]      -14.017 [kJ/mol]      -0.00533862 [Eh]
    Vibrational G           1.745 [kcal/mol]        7.303 [kJ/mol]       0.00278144 [Eh]
  Correction G            -11.963 [kcal/mol]      -50.055 [kJ/mol]      -0.01906483 [Eh]
  Total G, Free enthalpy at  298.15 [K]                               -473.35173485 [Eh]

    Psi4 stopped on: Tuesday, 27 April 2021 05:09PM
    Psi4 wall time for execution: 0:01:34.81

*** Psi4 exiting successfully. Buy a developer a beer!
