                               Psi4 1.3.2 release

  ==> Input File <==

--------------------------------------------------------------------------
memory 144 GB

molecule {
0 1
B 0.0000000000 0.0000000000 0.0000000000
H 0.0000000000 0.0000000000 1.1899000000
H 1.0304836280 0.0000000000 -0.5949500000
H -1.0304836280 -0.0000000000 -0.5949500000
}

set dynamic_level 1
set basis aug-cc-pV(T+d)Z

optimize("wB97M-V")
frequencies("wB97M-V")
--------------------------------------------------------------------------

    Molecular point group: c2v
  Charge       = 0
  Multiplicity = 1
  Basis Set: AUG-CC-PV(T+D)Z
    Blend: AUG-CC-PV(T+D)Z
  Basis Set: (AUG-CC-PV(T+D)Z AUX)
    Blend: AUG-CC-PVTZ-JKFIT
  @DF-RKS Final Energy:   -26.58373532468539
    Total Energy =                        -26.5837353246853958
    Molecular point group: c2v
  Basis Set: AUG-CC-PV(T+D)Z
    Blend: AUG-CC-PV(T+D)Z
  Basis Set: (AUG-CC-PV(T+D)Z AUX)
    Blend: AUG-CC-PVTZ-JKFIT
  @DF-RKS Final Energy:   -26.58373318469284
    Total Energy =                        -26.5837331846928393
  Basis Set: AUG-CC-PV(T+D)Z
    Blend: AUG-CC-PV(T+D)Z
  Basis Set: (AUG-CC-PV(T+D)Z AUX)
    Blend: AUG-CC-PVTZ-JKFIT
  @DF-RKS Final Energy:   -26.58373314386957
    Total Energy =                        -26.5837331438695692
  Basis Set: AUG-CC-PV(T+D)Z
    Blend: AUG-CC-PV(T+D)Z
  Basis Set: (AUG-CC-PV(T+D)Z AUX)
    Blend: AUG-CC-PVTZ-JKFIT
  @DF-RKS Final Energy:   -26.58374436215390
    Total Energy =                        -26.5837443621539009
  @DF-RKS Final Energy:   -26.58372124507246
    Total Energy =                        -26.5837212450724607
  @DF-RKS Final Energy:   -26.58374435506415
    Total Energy =                        -26.5837443550641446
  @DF-RKS Final Energy:   -26.58372125256430
    Total Energy =                        -26.5837212525643025
  @DF-RKS Final Energy:   -26.58375671213009
    Total Energy =                        -26.5837567121300928
  @DF-RKS Final Energy:   -26.58375452535820
    Total Energy =                        -26.5837545253582022
  @DF-RKS Final Energy:   -26.58375450946461
    Total Energy =                        -26.5837545094646082
  @DF-RKS Final Energy:   -26.58375421810846
    Total Energy =                        -26.5837542181084636
  @DF-RKS Final Energy:   -26.58375407609678
    Total Energy =                        -26.5837540760967777
  @DF-RKS Final Energy:   -26.58375421226080
    Total Energy =                        -26.5837542122607999
  @DF-RKS Final Energy:   -26.58375408280489
    Total Energy =                        -26.5837540828048873
  **** Optimization is complete! (in 2 steps) ****
    Final optimized geometry and variables:
  @DF-RKS Final Energy:   -26.58375671239030
    Total Energy =                        -26.5837567123903042
  @DF-RKS Final Energy:   -26.58375452517816
    Total Energy =                        -26.5837545251781684
  @DF-RKS Final Energy:   -26.58375450953784
    Total Energy =                        -26.5837545095378474
  @DF-RKS Final Energy:   -26.58375421800816
    Total Energy =                        -26.5837542180081634
  @DF-RKS Final Energy:   -26.58375407629238
    Total Energy =                        -26.5837540762923794
  @DF-RKS Final Energy:   -26.58375421200790
    Total Energy =                        -26.5837542120079036
  @DF-RKS Final Energy:   -26.58375408253990
    Total Energy =                        -26.5837540825399010
  @DF-RKS Final Energy:   -26.58375671239029
    Total Energy =                        -26.5837567123902865
  @DF-RKS Final Energy:   -26.58375452517814
    Total Energy =                        -26.5837545251781364
  @DF-RKS Final Energy:   -26.58375450953786
    Total Energy =                        -26.5837545095378616
  @DF-RKS Final Energy:   -26.58375421800813
    Total Energy =                        -26.5837542180081350
  @DF-RKS Final Energy:   -26.58375407629234
    Total Energy =                        -26.5837540762923368
  @DF-RKS Final Energy:   -26.58375421200797
    Total Energy =                        -26.5837542120079711
  @DF-RKS Final Energy:   -26.58375408253988
    Total Energy =                        -26.5837540825398797
  @DF-RKS Final Energy:   -26.58375384008864
    Total Energy =                        -26.5837538400886473
  @DF-RKS Final Energy:   -26.58375400387070
    Total Energy =                        -26.5837540038707019
  @DF-RKS Final Energy:   -26.58374992572817
    Total Energy =                        -26.5837499257281706
  @DF-RKS Final Energy:   -26.58375003836680
    Total Energy =                        -26.5837500383668015
  @DF-RKS Final Energy:   -26.58375025646414
    Total Energy =                        -26.5837502564641355
  @DF-RKS Final Energy:   -26.58375051047028
    Total Energy =                        -26.5837505104702778
  @DF-RKS Final Energy:   -26.58375451743521
    Total Energy =                        -26.5837545174352066
  Basis Set: AUG-CC-PV(T+D)Z
    Blend: AUG-CC-PV(T+D)Z
  Basis Set: (AUG-CC-PV(T+D)Z AUX)
    Blend: AUG-CC-PVTZ-JKFIT
  @DF-RKS Final Energy:   -26.58375477706690
    Total Energy =                        -26.5837547770668934
  Basis Set: AUG-CC-PV(T+D)Z
    Blend: AUG-CC-PV(T+D)Z
  Basis Set: (AUG-CC-PV(T+D)Z AUX)
    Blend: AUG-CC-PVTZ-JKFIT
  @DF-RKS Final Energy:   -26.58374979470000
    Total Energy =                        -26.5837497946999974
  Multiplicity = 1
  Basis Set: AUG-CC-PV(T+D)Z
    Blend: AUG-CC-PV(T+D)Z
  Basis Set: (AUG-CC-PV(T+D)Z AUX)
    Blend: AUG-CC-PVTZ-JKFIT
  @DF-RKS Final Energy:   -26.58374979454144
    Total Energy =                        -26.5837497945414363
    Molecular point group: cs

    Geometry (in Angstrom), charge = 0, multiplicity = 1:

       Center              X                  Y                   Z               Mass
    ------------   -----------------  -----------------  -----------------  -----------------
         B            0.000000000000    -0.000370145531    -0.000001947564    11.009305360000
         H            0.000000000000     0.001347781256     1.185958054072     1.007825032230
         H            1.027073915835     0.001347812075    -0.592968389613     1.007825032230
         H           -1.027073915835     0.001347812075    -0.592968389613     1.007825032230

  Charge       = 0
  Multiplicity = 1
  Basis Set: AUG-CC-PV(T+D)Z
    Blend: AUG-CC-PV(T+D)Z
  Basis Set: (AUG-CC-PV(T+D)Z AUX)
    Blend: AUG-CC-PVTZ-JKFIT

    Orbital Energies [Eh]
    ---------------------

    Doubly Occupied:

       1Ap    -6.917922     2Ap    -0.627849     1App   -0.453207
       3Ap    -0.453204

  @DF-RKS Final Energy:   -26.58375608504899

   => Energetics <=

    Nuclear Repulsion Energy =              7.4658798929533106
    One-Electron Energy =                 -49.1361248655393794
    Two-Electron Energy =                  18.4185330979071260
    DFT Exchange-Correlation Energy =      -3.3658777200328256
    Empirical Dispersion Energy =           0.0000000000000000
    VV10 Nonlocal Energy =                  0.0338335096627856
    Total Energy =                        -26.5837560850489822

  Dipole Moment: [D]
     X:     0.0000      Y:    -0.0038      Z:    -0.0000     Total:     0.0038

  Vibration                       7                   8                   9
  Freq [cm^-1]                1151.5988           1185.9817           1201.3705
  Irrep                           B2                  B1                  A1
  Reduced mass [u]              1.2531              1.1060              1.1073
  Force const [mDyne/A]         0.9791              0.9166              0.9416

  Vibration                       10                  11                  12
  Freq [cm^-1]                2586.4208           2706.4232           2711.6007
  Irrep                           A1                  B1                  A1
  Reduced mass [u]              1.0078              1.1285              1.1272
  Force const [mDyne/A]         3.9722              4.8702              4.8831

  ==> Thermochemistry Components <==

  Entropy, S
    Electronic S            0.000 [cal/(mol K)]        0.000 [J/(mol K)]       0.00000000 [mEh/K] (multiplicity = 1)
    Translational S        33.864 [cal/(mol K)]      141.688 [J/(mol K)]       0.05396630 [mEh/K] (mol. weight = 14.0328 [u], P = 101325.00 [Pa])
    Rotational S           13.157 [cal/(mol K)]       55.049 [J/(mol K)]       0.02096691 [mEh/K] (symmetry no. = 2)
    Vibrational S           0.136 [cal/(mol K)]        0.567 [J/(mol K)]       0.00021612 [mEh/K]
  Total S                  47.157 [cal/(mol K)]      197.305 [J/(mol K)]       0.07514933 [mEh/K]
  Correction S              0.000 [cal/(mol K)]        0.000 [J/(mol K)]       0.00000000 [mEh/K]

  Constant volume heat capacity, Cv
    Electronic Cv           0.000 [cal/(mol K)]        0.000 [J/(mol K)]       0.00000000 [mEh/K]
    Translational Cv        2.981 [cal/(mol K)]       12.472 [J/(mol K)]       0.00475022 [mEh/K]
    Rotational Cv           2.981 [cal/(mol K)]       12.472 [J/(mol K)]       0.00475022 [mEh/K]
    Vibrational Cv          0.659 [cal/(mol K)]        2.759 [J/(mol K)]       0.00105092 [mEh/K]
  Total Cv                  6.621 [cal/(mol K)]       27.703 [J/(mol K)]       0.01055135 [mEh/K]
  Correction Cv             0.000 [cal/(mol K)]        0.000 [J/(mol K)]       0.00000000 [mEh/K]

  Constant pressure heat capacity, Cp
    Electronic Cp           0.000 [cal/(mol K)]        0.000 [J/(mol K)]       0.00000000 [mEh/K]
    Translational Cp        4.968 [cal/(mol K)]       20.786 [J/(mol K)]       0.00791703 [mEh/K]
    Rotational Cp           2.981 [cal/(mol K)]       12.472 [J/(mol K)]       0.00475022 [mEh/K]
    Vibrational Cp          0.659 [cal/(mol K)]        2.759 [J/(mol K)]       0.00105092 [mEh/K]
  Total Cp                  8.608 [cal/(mol K)]       36.017 [J/(mol K)]       0.01371816 [mEh/K]
  Correction Cp             0.000 [cal/(mol K)]        0.000 [J/(mol K)]       0.00000000 [mEh/K]

  ==> Thermochemistry Energy Analysis <==

  Raw electronic energy, E0
  Total E0, Electronic energy at well bottom at 0 [K]                  -26.58375671 [Eh]

  Zero-point energy, ZPE_vib = Sum_i nu_i / 2
    Electronic ZPE          0.000 [kcal/mol]        0.000 [kJ/mol]       0.00000000 [Eh]
    Translational ZPE       0.000 [kcal/mol]        0.000 [kJ/mol]       0.00000000 [Eh]
    Rotational ZPE          0.000 [kcal/mol]        0.000 [kJ/mol]       0.00000000 [Eh]
    Vibrational ZPE        16.502 [kcal/mol]       69.045 [kJ/mol]       0.02629779 [Eh]        5771.698 [cm^-1]
  Correction ZPE           16.502 [kcal/mol]       69.045 [kJ/mol]       0.02629779 [Eh]        5771.698 [cm^-1]
  Total ZPE, Electronic energy at 0 [K]                                -26.55745892 [Eh]

  Thermal Energy, E (includes ZPE)
    Electronic E            0.000 [kcal/mol]        0.000 [kJ/mol]       0.00000000 [Eh]
    Translational E         0.889 [kcal/mol]        3.718 [kJ/mol]       0.00141628 [Eh]
    Rotational E            0.889 [kcal/mol]        3.718 [kJ/mol]       0.00141628 [Eh]
    Vibrational E          16.537 [kcal/mol]       69.189 [kJ/mol]       0.02635261 [Eh]
  Correction E             18.314 [kcal/mol]       76.626 [kJ/mol]       0.02918516 [Eh]
  Total E, Electronic energy at  298.15 [K]                            -26.55457155 [Eh]

  Enthalpy, H_trans = E_trans + k_B * T
    Electronic H            0.000 [kcal/mol]        0.000 [kJ/mol]       0.00000000 [Eh]
    Translational H         1.481 [kcal/mol]        6.197 [kJ/mol]       0.00236046 [Eh]
    Rotational H            0.889 [kcal/mol]        3.718 [kJ/mol]       0.00141628 [Eh]
    Vibrational H          16.537 [kcal/mol]       69.189 [kJ/mol]       0.02635261 [Eh]
  Correction H             18.906 [kcal/mol]       79.105 [kJ/mol]       0.03012934 [Eh]
  Total H, Enthalpy at  298.15 [K]                                     -26.55362737 [Eh]

  Gibbs free energy, G = H - T * S
    Electronic G            0.000 [kcal/mol]        0.000 [kJ/mol]       0.00000000 [Eh]
    Translational G        -8.615 [kcal/mol]      -36.047 [kJ/mol]      -0.01372959 [Eh]
    Rotational G           -3.034 [kcal/mol]      -12.694 [kJ/mol]      -0.00483501 [Eh]
    Vibrational G          16.496 [kcal/mol]       69.020 [kJ/mol]       0.02628817 [Eh]
  Correction G              4.847 [kcal/mol]       20.278 [kJ/mol]       0.00772357 [Eh]
  Total G, Free enthalpy at  298.15 [K]                                -26.57603314 [Eh]

*** Psi4 exiting successfully. Buy a developer a beer!
