                               Psi4 1.3.2 release

  ==> Input File <==

--------------------------------------------------------------------------
memory 144 GB

molecule {
0 1
C 0.0000000000 0.0000000000 0.0000000000
C 0.0000000000 0.0000000000 1.2065000000
H 0.0000000000 -0.0000000000 2.2699000000
H -0.0000000000 -0.0000000000 -1.0634000000
}

set dynamic_level 1
set basis aug-cc-pV(T+d)Z

optimize("wB97M-V")
frequencies("wB97M-V")
--------------------------------------------------------------------------

    Molecular point group: d2h
  Charge       = 0
  Multiplicity = 1
  Basis Set: AUG-CC-PV(T+D)Z
    Blend: AUG-CC-PV(T+D)Z
  Basis Set: (AUG-CC-PV(T+D)Z AUX)
    Blend: AUG-CC-PVTZ-JKFIT
  @DF-RKS Final Energy:   -77.32335835746223
    Total Energy =                        -77.3233583574622259
    Molecular point group: d2h
  Basis Set: AUG-CC-PV(T+D)Z
    Blend: AUG-CC-PV(T+D)Z
  Basis Set: (AUG-CC-PV(T+D)Z AUX)
    Blend: AUG-CC-PVTZ-JKFIT
  @DF-RKS Final Energy:   -77.32330936201799
    Total Energy =                        -77.3233093620179943
  Basis Set: AUG-CC-PV(T+D)Z
    Blend: AUG-CC-PV(T+D)Z
  Basis Set: (AUG-CC-PV(T+D)Z AUX)
    Blend: AUG-CC-PVTZ-JKFIT
  @DF-RKS Final Energy:   -77.32340231614441
    Total Energy =                        -77.3234023161444100
  Basis Set: AUG-CC-PV(T+D)Z
    Blend: AUG-CC-PV(T+D)Z
  Basis Set: (AUG-CC-PV(T+D)Z AUX)
    Blend: AUG-CC-PVTZ-JKFIT
  @DF-RKS Final Energy:   -77.32336213449410
    Total Energy =                        -77.3233621344941042
  @DF-RKS Final Energy:   -77.32334440533988
    Total Energy =                        -77.3233444053398955
  @DF-RKS Final Energy:   -77.32362528964467
    Total Energy =                        -77.3236252896446672
  @DF-RKS Final Energy:   -77.32362703090355
    Total Energy =                        -77.3236270309035518
  @DF-RKS Final Energy:   -77.32361770945019
    Total Energy =                        -77.3236177094501755
  @DF-RKS Final Energy:   -77.32362084432334
    Total Energy =                        -77.3236208443233437
  @DF-RKS Final Energy:   -77.32361967871536
    Total Energy =                        -77.3236196787153602
  @DF-RKS Final Energy:   -77.32362736372343
    Total Energy =                        -77.3236273637234319
  @DF-RKS Final Energy:   -77.32362430974901
    Total Energy =                        -77.3236243097490075
  @DF-RKS Final Energy:   -77.32362453907452
    Total Energy =                        -77.3236245390745154
  @DF-RKS Final Energy:   -77.32362233321695
    Total Energy =                        -77.3236223332169459
  @DF-RKS Final Energy:   -77.32362234521219
    Total Energy =                        -77.3236223452122005
  **** Optimization is complete! (in 3 steps) ****
    Final optimized geometry and variables:
  @DF-RKS Final Energy:   -77.32362736372338
    Total Energy =                        -77.3236273637233893
  @DF-RKS Final Energy:   -77.32362430974874
    Total Energy =                        -77.3236243097487232
  @DF-RKS Final Energy:   -77.32362453907440
    Total Energy =                        -77.3236245390744017
  @DF-RKS Final Energy:   -77.32362233321702
    Total Energy =                        -77.3236223332170169
  @DF-RKS Final Energy:   -77.32362234521224
    Total Energy =                        -77.3236223452122715
  @DF-RKS Final Energy:   -77.32362736372347
    Total Energy =                        -77.3236273637234888
  @DF-RKS Final Energy:   -77.32362430974881
    Total Energy =                        -77.3236243097488227
  @DF-RKS Final Energy:   -77.32362453907446
    Total Energy =                        -77.3236245390744585
  @DF-RKS Final Energy:   -77.32362233321724
    Total Energy =                        -77.3236223332172301
  @DF-RKS Final Energy:   -77.32362234521221
    Total Energy =                        -77.3236223452122289
  @DF-RKS Final Energy:   -77.32361686072009
    Total Energy =                        -77.3236168607200796
  @DF-RKS Final Energy:   -77.32361607103229
    Total Energy =                        -77.3236160710322764
  @DF-RKS Final Energy:   -77.32362681801129
    Total Energy =                        -77.3236268180113058
  Basis Set: AUG-CC-PV(T+D)Z
    Blend: AUG-CC-PV(T+D)Z
  Basis Set: (AUG-CC-PV(T+D)Z AUX)
    Blend: AUG-CC-PVTZ-JKFIT
  @DF-RKS Final Energy:   -77.32362688757129
    Total Energy =                        -77.3236268875712938
  Basis Set: AUG-CC-PV(T+D)Z
    Blend: AUG-CC-PV(T+D)Z
  Basis Set: (AUG-CC-PV(T+D)Z AUX)
    Blend: AUG-CC-PVTZ-JKFIT
  @DF-RKS Final Energy:   -77.32362170282060
    Total Energy =                        -77.3236217028206028
  Multiplicity = 1
  Basis Set: AUG-CC-PV(T+D)Z
    Blend: AUG-CC-PV(T+D)Z
  Basis Set: (AUG-CC-PV(T+D)Z AUX)
    Blend: AUG-CC-PVTZ-JKFIT
  @DF-RKS Final Energy:   -77.32362708551632
    Total Energy =                        -77.3236270855163355
    Molecular point group: c2v

    Geometry (in Angstrom), charge = 0, multiplicity = 1:

       Center              X                  Y                   Z               Mass
    ------------   -----------------  -----------------  -----------------  -----------------
         C           -0.000150333491     0.000000000000    -0.597521523709    12.000000000000
         C           -0.000150333491     0.000000000000     0.597521523709    12.000000000000
         H            0.001789995126     0.000000000000     1.659068807778     1.007825032230
         H            0.001789995126     0.000000000000    -1.659068807778     1.007825032230

  Charge       = 0
  Multiplicity = 1
  Basis Set: AUG-CC-PV(T+D)Z
    Blend: AUG-CC-PV(T+D)Z
  Basis Set: (AUG-CC-PV(T+D)Z AUX)
    Blend: AUG-CC-PVTZ-JKFIT

    Orbital Energies [Eh]
    ---------------------

    Doubly Occupied:

       1A1   -10.351710     1B2   -10.349149     2A1    -0.878966
       2B2    -0.678666     3A1    -0.604257     1B1    -0.396205
       4A1    -0.396205

  @DF-RKS Final Energy:   -77.32362721145826

   => Energetics <=

    Nuclear Repulsion Energy =             24.8966247230147033
    One-Electron Energy =                -152.1208210288526743
    Two-Electron Energy =                  57.8804391871163375
    DFT Exchange-Correlation Energy =      -8.0375845077342518
    Empirical Dispersion Energy =           0.0000000000000000
    VV10 Nonlocal Energy =                  0.0577144149976333
    Total Energy =                        -77.3236272114582590

  Dipole Moment: [D]
     X:     0.0041      Y:     0.0000      Z:     0.0000     Total:     0.0041

  Vibration                       6                   7                   8
  Freq [cm^-1]                 567.3481            766.8906           1003.2800
  Irrep                          B3u                 B2u                 B3g
  Reduced mass [u]              1.0848              1.0848              1.5747
  Force const [mDyne/A]         0.2057              0.3759              0.9339

  Vibration                       9                   10                  11
  Freq [cm^-1]                1074.0663           2147.7884           3459.3310
  Irrep                          B2g                  Ag                 B1u
  Reduced mass [u]              1.5747              3.6427              1.0848
  Force const [mDyne/A]         1.0703              9.9005              7.6488

  Vibration                       12
  Freq [cm^-1]                3496.0366
  Irrep                           Ag
  Reduced mass [u]              1.2484
  Force const [mDyne/A]         8.9897

  ==> Thermochemistry Components <==

  Entropy, S
    Electronic S            0.000 [cal/(mol K)]        0.000 [J/(mol K)]       0.00000000 [mEh/K] (multiplicity = 1)
    Translational S        35.704 [cal/(mol K)]      149.387 [J/(mol K)]       0.05689862 [mEh/K] (mol. weight = 26.0157 [u], P = 101325.00 [Pa])
    Rotational S           10.857 [cal/(mol K)]       45.424 [J/(mol K)]       0.01730099 [mEh/K] (symmetry no. = 2)
    Vibrational S           0.908 [cal/(mol K)]        3.798 [J/(mol K)]       0.00144648 [mEh/K]
  Total S                  47.469 [cal/(mol K)]      198.609 [J/(mol K)]       0.07564609 [mEh/K]
  Correction S              0.000 [cal/(mol K)]        0.000 [J/(mol K)]       0.00000000 [mEh/K]

  Constant volume heat capacity, Cv
    Electronic Cv           0.000 [cal/(mol K)]        0.000 [J/(mol K)]       0.00000000 [mEh/K]
    Translational Cv        2.981 [cal/(mol K)]       12.472 [J/(mol K)]       0.00475022 [mEh/K]
    Rotational Cv           1.987 [cal/(mol K)]        8.314 [J/(mol K)]       0.00316681 [mEh/K]
    Vibrational Cv          2.492 [cal/(mol K)]       10.427 [J/(mol K)]       0.00397138 [mEh/K]
  Total Cv                  7.460 [cal/(mol K)]       31.213 [J/(mol K)]       0.01188840 [mEh/K]
  Correction Cv             0.000 [cal/(mol K)]        0.000 [J/(mol K)]       0.00000000 [mEh/K]

  Constant pressure heat capacity, Cp
    Electronic Cp           0.000 [cal/(mol K)]        0.000 [J/(mol K)]       0.00000000 [mEh/K]
    Translational Cp        4.968 [cal/(mol K)]       20.786 [J/(mol K)]       0.00791703 [mEh/K]
    Rotational Cp           1.987 [cal/(mol K)]        8.314 [J/(mol K)]       0.00316681 [mEh/K]
    Vibrational Cp          2.492 [cal/(mol K)]       10.427 [J/(mol K)]       0.00397138 [mEh/K]
  Total Cp                  9.447 [cal/(mol K)]       39.527 [J/(mol K)]       0.01505521 [mEh/K]
  Correction Cp             0.000 [cal/(mol K)]        0.000 [J/(mol K)]       0.00000000 [mEh/K]

  ==> Thermochemistry Energy Analysis <==

  Raw electronic energy, E0
  Total E0, Electronic energy at well bottom at 0 [K]                  -77.32362736 [Eh]

  Zero-point energy, ZPE_vib = Sum_i nu_i / 2
    Electronic ZPE          0.000 [kcal/mol]        0.000 [kJ/mol]       0.00000000 [Eh]
    Translational ZPE       0.000 [kcal/mol]        0.000 [kJ/mol]       0.00000000 [Eh]
    Rotational ZPE          0.000 [kcal/mol]        0.000 [kJ/mol]       0.00000000 [Eh]
    Vibrational ZPE        17.891 [kcal/mol]       74.855 [kJ/mol]       0.02851068 [Eh]        6257.371 [cm^-1]
  Correction ZPE           17.891 [kcal/mol]       74.855 [kJ/mol]       0.02851068 [Eh]        6257.371 [cm^-1]
  Total ZPE, Electronic energy at 0 [K]                                -77.29511669 [Eh]

  Thermal Energy, E (includes ZPE)
    Electronic E            0.000 [kcal/mol]        0.000 [kJ/mol]       0.00000000 [Eh]
    Translational E         0.889 [kcal/mol]        3.718 [kJ/mol]       0.00141628 [Eh]
    Rotational E            0.592 [kcal/mol]        2.479 [kJ/mol]       0.00094418 [Eh]
    Vibrational E          18.099 [kcal/mol]       75.726 [kJ/mol]       0.02884234 [Eh]
  Correction E             19.580 [kcal/mol]       81.923 [kJ/mol]       0.03120280 [Eh]
  Total E, Electronic energy at  298.15 [K]                            -77.29242457 [Eh]

  Enthalpy, H_trans = E_trans + k_B * T
    Electronic H            0.000 [kcal/mol]        0.000 [kJ/mol]       0.00000000 [Eh]
    Translational H         1.481 [kcal/mol]        6.197 [kJ/mol]       0.00236046 [Eh]
    Rotational H            0.592 [kcal/mol]        2.479 [kJ/mol]       0.00094418 [Eh]
    Vibrational H          18.099 [kcal/mol]       75.726 [kJ/mol]       0.02884234 [Eh]
  Correction H             20.173 [kcal/mol]       84.402 [kJ/mol]       0.03214698 [Eh]
  Total H, Enthalpy at  298.15 [K]                                     -77.29148038 [Eh]

  Gibbs free energy, G = H - T * S
    Electronic G            0.000 [kcal/mol]        0.000 [kJ/mol]       0.00000000 [Eh]
    Translational G        -9.164 [kcal/mol]      -38.342 [kJ/mol]      -0.01460386 [Eh]
    Rotational G           -2.644 [kcal/mol]      -11.064 [kJ/mol]      -0.00421411 [Eh]
    Vibrational G          17.828 [kcal/mol]       74.593 [kJ/mol]       0.02841107 [Eh]
  Correction G              6.020 [kcal/mol]       25.187 [kJ/mol]       0.00959310 [Eh]
  Total G, Free enthalpy at  298.15 [K]                                -77.31403426 [Eh]

*** Psi4 exiting successfully. Buy a developer a beer!
