                               Psi4 1.3.2 release

  ==> Input File <==

--------------------------------------------------------------------------
memory 144 GB

molecule {
0 1
C 0.0000000000 0.0000000000 0.0000000000
C 0.0000000000 0.0000000000 1.3342000000
H 0.9234041342 0.0000000000 1.8987335198
H -0.9234041342 0.0000000000 1.8987335198
H 0.9234041342 0.0000000000 -0.5645335198
H -0.9234041342 -0.0000000000 -0.5645335198
}

set dynamic_level 1
set basis aug-cc-pV(T+d)Z

optimize("wB97M-V")
frequencies("wB97M-V")
--------------------------------------------------------------------------

    Molecular point group: d2h
  Charge       = 0
  Multiplicity = 1
  Basis Set: AUG-CC-PV(T+D)Z
    Blend: AUG-CC-PV(T+D)Z
  Basis Set: (AUG-CC-PV(T+D)Z AUX)
    Blend: AUG-CC-PVTZ-JKFIT
  @DF-RKS Final Energy:   -78.56616437199214
    Total Energy =                        -78.5661643719921301
    Molecular point group: d2h
  Basis Set: AUG-CC-PV(T+D)Z
    Blend: AUG-CC-PV(T+D)Z
  Basis Set: (AUG-CC-PV(T+D)Z AUX)
    Blend: AUG-CC-PVTZ-JKFIT
  @DF-RKS Final Energy:   -78.56613617539713
    Total Energy =                        -78.5661361753971477
  Basis Set: AUG-CC-PV(T+D)Z
    Blend: AUG-CC-PV(T+D)Z
  Basis Set: (AUG-CC-PV(T+D)Z AUX)
    Blend: AUG-CC-PVTZ-JKFIT
  @DF-RKS Final Energy:   -78.56618968767236
    Total Energy =                        -78.5661896876723773
  Basis Set: AUG-CC-PV(T+D)Z
    Blend: AUG-CC-PV(T+D)Z
  Basis Set: (AUG-CC-PV(T+D)Z AUX)
    Blend: AUG-CC-PVTZ-JKFIT
  @DF-RKS Final Energy:   -78.56616595635023
    Total Energy =                        -78.5661659563502468
  @DF-RKS Final Energy:   -78.56615555797933
    Total Energy =                        -78.5661555579793287
  @DF-RKS Final Energy:   -78.56616559997219
    Total Energy =                        -78.5661655999722086
  @DF-RKS Final Energy:   -78.56615941946848
    Total Energy =                        -78.5661594194684625
  @DF-RKS Final Energy:   -78.56631491266650
    Total Energy =                        -78.5663149126664990
  @DF-RKS Final Energy:   -78.56631424000740
    Total Energy =                        -78.5663142400074008
  @DF-RKS Final Energy:   -78.56631255222638
    Total Energy =                        -78.5663125522263783
  @DF-RKS Final Energy:   -78.56631175647476
    Total Energy =                        -78.5663117564747466
  @DF-RKS Final Energy:   -78.56631083245325
    Total Energy =                        -78.5663108324532260
  @DF-RKS Final Energy:   -78.56630917466752
    Total Energy =                        -78.5663091746675235
  @DF-RKS Final Energy:   -78.56631694649350
    Total Energy =                        -78.5663169464935010
  @DF-RKS Final Energy:   -78.56631863495456
    Total Energy =                        -78.5663186349545271
  @DF-RKS Final Energy:   -78.56631657132063
    Total Energy =                        -78.5663165713206268
  @DF-RKS Final Energy:   -78.56631762152776
    Total Energy =                        -78.5663176215277588
  @DF-RKS Final Energy:   -78.56631532412102
    Total Energy =                        -78.5663153241210068
  @DF-RKS Final Energy:   -78.56631470869422
    Total Energy =                        -78.5663147086942217
  @DF-RKS Final Energy:   -78.56631570209487
    Total Energy =                        -78.5663157020948546
  **** Optimization is complete! (in 4 steps) ****
    Final optimized geometry and variables:
  @DF-RKS Final Energy:   -78.56631250371512
    Total Energy =                        -78.5663125037151246
  @DF-RKS Final Energy:   -78.56631447948199
    Total Energy =                        -78.5663144794820028
  @DF-RKS Final Energy:   -78.56631428340626
    Total Energy =                        -78.5663142834062711
  @DF-RKS Final Energy:   -78.56631049027027
    Total Energy =                        -78.5663104902702543
  @DF-RKS Final Energy:   -78.56631037812338
    Total Energy =                        -78.5663103781233616
  @DF-RKS Final Energy:   -78.56631733041235
    Total Energy =                        -78.5663173304123319
  @DF-RKS Final Energy:   -78.56631497414148
    Total Energy =                        -78.5663149741414912
  @DF-RKS Final Energy:   -78.56630986820517
    Total Energy =                        -78.5663098682051810
  @DF-RKS Final Energy:   -78.56630986165239
    Total Energy =                        -78.5663098616523854
  @DF-RKS Final Energy:   -78.56631847752089
    Total Energy =                        -78.5663184775208947
  @DF-RKS Final Energy:   -78.56631842805972
    Total Energy =                        -78.5663184280597306
  @DF-RKS Final Energy:   -78.56631688209775
    Total Energy =                        -78.5663168820977660
  @DF-RKS Final Energy:   -78.56631532703624
    Total Energy =                        -78.5663153270362358
  @DF-RKS Final Energy:   -78.56631656541251
    Total Energy =                        -78.5663165654124924
  @DF-RKS Final Energy:   -78.56631656285734
    Total Energy =                        -78.5663165628573381
  @DF-RKS Final Energy:   -78.56631851358689
    Total Energy =                        -78.5663185135869071
  Basis Set: AUG-CC-PV(T+D)Z
    Blend: AUG-CC-PV(T+D)Z
  Basis Set: (AUG-CC-PV(T+D)Z AUX)
    Blend: AUG-CC-PVTZ-JKFIT
  @DF-RKS Final Energy:   -78.56631513445684
    Total Energy =                        -78.5663151344568433
  Basis Set: AUG-CC-PV(T+D)Z
    Blend: AUG-CC-PV(T+D)Z
  Basis Set: (AUG-CC-PV(T+D)Z AUX)
    Blend: AUG-CC-PVTZ-JKFIT
  @DF-RKS Final Energy:   -78.56631745351575
    Total Energy =                        -78.5663174535157509
  Multiplicity = 1
  Basis Set: AUG-CC-PV(T+D)Z
    Blend: AUG-CC-PV(T+D)Z
  Basis Set: (AUG-CC-PV(T+D)Z AUX)
    Blend: AUG-CC-PVTZ-JKFIT
  @DF-RKS Final Energy:   -78.56631768601281
    Total Energy =                        -78.5663176860128090
    Molecular point group: c2v

    Geometry (in Angstrom), charge = 0, multiplicity = 1:

       Center              X                  Y                   Z               Mass
    ------------   -----------------  -----------------  -----------------  -----------------
         C           -0.000204817217     0.000000000000    -0.661263413716    12.000000000000
         C           -0.000204817217     0.000000000000     0.661263413716    12.000000000000
         H            0.922913954715     0.000000000000     1.226067567899     1.007825032230
         H           -0.920475231196     0.000000000000     1.228703162241     1.007825032230
         H            0.922913954715     0.000000000000    -1.226067567899     1.007825032230
         H           -0.920475231196     0.000000000000    -1.228703162241     1.007825032230

  Charge       = 0
  Multiplicity = 1
  Basis Set: AUG-CC-PV(T+D)Z
    Blend: AUG-CC-PV(T+D)Z
  Basis Set: (AUG-CC-PV(T+D)Z AUX)
    Blend: AUG-CC-PVTZ-JKFIT

    Orbital Energies [Eh]
    ---------------------

    Doubly Occupied:

       1A1   -10.342859     1B2   -10.341949     2A1    -0.886936
       2B2    -0.693628     3A1    -0.579007     4A1    -0.525421
       3B2    -0.453414     1B1    -0.375675

  @DF-RKS Final Energy:   -78.56631768310591

   => Energetics <=

    Nuclear Repulsion Energy =             33.5391395517615081
    One-Electron Energy =                -170.5749792198988928
    Two-Electron Energy =                  66.8606978365946532
    DFT Exchange-Correlation Energy =      -8.4560559287563386
    Empirical Dispersion Energy =           0.0000000000000000
    VV10 Nonlocal Energy =                  0.0648800771931636
    Total Energy =                        -78.5663176831059076

  Dipole Moment: [D]
     X:    -0.0007      Y:     0.0000      Z:     0.0000     Total:     0.0007

  Vibration                       7                   8                   9
  Freq [cm^-1]                 826.9207            959.4378            998.3803
  Irrep                          B3u                 B2u                 B3g
  Reduced mass [u]              1.0423              1.1607              1.5173
  Force const [mDyne/A]         0.4199              0.6295              0.8911

  Vibration                       10                  11                  12
  Freq [cm^-1]                1049.4392           1208.6473           1374.9153
  Irrep                           Au                 B2g                  Ag
  Reduced mass [u]              1.0078              1.5254              1.1732
  Force const [mDyne/A]         0.6540              1.3129              1.3067

  Vibration                       13                  14                  15
  Freq [cm^-1]                1467.4233           1706.3285           3142.1164
  Irrep                          B1u                  Ag                 B1u
  Reduced mass [u]              1.1123              3.5076              1.0474
  Force const [mDyne/A]         1.4112              6.0171              6.0929

  Vibration                       16                  17                  18
  Freq [cm^-1]                3160.2790           3219.2676           3246.7793
  Irrep                           Ag                 B2g                 B3u
  Reduced mass [u]              1.0748              1.1147              1.1181
  Force const [mDyne/A]         6.3248              6.8063              6.9444

  ==> Thermochemistry Components <==

  Entropy, S
    Electronic S            0.000 [cal/(mol K)]        0.000 [J/(mol K)]       0.00000000 [mEh/K] (multiplicity = 1)
    Translational S        35.927 [cal/(mol K)]      150.318 [J/(mol K)]       0.05725309 [mEh/K] (mol. weight = 28.0313 [u], P = 101325.00 [Pa])
    Rotational S           15.831 [cal/(mol K)]       66.237 [J/(mol K)]       0.02522829 [mEh/K] (symmetry no. = 4)
    Vibrational S           0.546 [cal/(mol K)]        2.283 [J/(mol K)]       0.00086950 [mEh/K]
  Total S                  52.303 [cal/(mol K)]      218.838 [J/(mol K)]       0.08335088 [mEh/K]
  Correction S              0.000 [cal/(mol K)]        0.000 [J/(mol K)]       0.00000000 [mEh/K]

  Constant volume heat capacity, Cv
    Electronic Cv           0.000 [cal/(mol K)]        0.000 [J/(mol K)]       0.00000000 [mEh/K]
    Translational Cv        2.981 [cal/(mol K)]       12.472 [J/(mol K)]       0.00475022 [mEh/K]
    Rotational Cv           2.981 [cal/(mol K)]       12.472 [J/(mol K)]       0.00475022 [mEh/K]
    Vibrational Cv          2.171 [cal/(mol K)]        9.083 [J/(mol K)]       0.00345954 [mEh/K]
  Total Cv                  8.133 [cal/(mol K)]       34.026 [J/(mol K)]       0.01295997 [mEh/K]
  Correction Cv             0.000 [cal/(mol K)]        0.000 [J/(mol K)]       0.00000000 [mEh/K]

  Constant pressure heat capacity, Cp
    Electronic Cp           0.000 [cal/(mol K)]        0.000 [J/(mol K)]       0.00000000 [mEh/K]
    Translational Cp        4.968 [cal/(mol K)]       20.786 [J/(mol K)]       0.00791703 [mEh/K]
    Rotational Cp           2.981 [cal/(mol K)]       12.472 [J/(mol K)]       0.00475022 [mEh/K]
    Vibrational Cp          2.171 [cal/(mol K)]        9.083 [J/(mol K)]       0.00345954 [mEh/K]
  Total Cp                 10.120 [cal/(mol K)]       42.341 [J/(mol K)]       0.01612678 [mEh/K]
  Correction Cp             0.000 [cal/(mol K)]        0.000 [J/(mol K)]       0.00000000 [mEh/K]

  ==> Thermochemistry Energy Analysis <==

  Raw electronic energy, E0
  Total E0, Electronic energy at well bottom at 0 [K]                  -78.56631895 [Eh]

  Zero-point energy, ZPE_vib = Sum_i nu_i / 2
    Electronic ZPE          0.000 [kcal/mol]        0.000 [kJ/mol]       0.00000000 [Eh]
    Translational ZPE       0.000 [kcal/mol]        0.000 [kJ/mol]       0.00000000 [Eh]
    Rotational ZPE          0.000 [kcal/mol]        0.000 [kJ/mol]       0.00000000 [Eh]
    Vibrational ZPE        31.965 [kcal/mol]      133.742 [kJ/mol]       0.05093968 [Eh]       11179.967 [cm^-1]
  Correction ZPE           31.965 [kcal/mol]      133.742 [kJ/mol]       0.05093968 [Eh]       11179.967 [cm^-1]
  Total ZPE, Electronic energy at 0 [K]                                -78.51537927 [Eh]

  Thermal Energy, E (includes ZPE)
    Electronic E            0.000 [kcal/mol]        0.000 [kJ/mol]       0.00000000 [Eh]
    Translational E         0.889 [kcal/mol]        3.718 [kJ/mol]       0.00141628 [Eh]
    Rotational E            0.889 [kcal/mol]        3.718 [kJ/mol]       0.00141628 [Eh]
    Vibrational E          32.099 [kcal/mol]      134.303 [kJ/mol]       0.05115333 [Eh]
  Correction E             33.877 [kcal/mol]      141.740 [kJ/mol]       0.05398589 [Eh]
  Total E, Electronic energy at  298.15 [K]                            -78.51233306 [Eh]

  Enthalpy, H_trans = E_trans + k_B * T
    Electronic H            0.000 [kcal/mol]        0.000 [kJ/mol]       0.00000000 [Eh]
    Translational H         1.481 [kcal/mol]        6.197 [kJ/mol]       0.00236046 [Eh]
    Rotational H            0.889 [kcal/mol]        3.718 [kJ/mol]       0.00141628 [Eh]
    Vibrational H          32.099 [kcal/mol]      134.303 [kJ/mol]       0.05115333 [Eh]
  Correction H             34.469 [kcal/mol]      144.219 [kJ/mol]       0.05493007 [Eh]
  Total H, Enthalpy at  298.15 [K]                                     -78.51138888 [Eh]

  Gibbs free energy, G = H - T * S
    Electronic G            0.000 [kcal/mol]        0.000 [kJ/mol]       0.00000000 [Eh]
    Translational G        -9.230 [kcal/mol]      -38.620 [kJ/mol]      -0.01470955 [Eh]
    Rotational G           -3.831 [kcal/mol]      -16.030 [kJ/mol]      -0.00610554 [Eh]
    Vibrational G          31.937 [kcal/mol]      133.622 [kJ/mol]       0.05089409 [Eh]
  Correction G             18.875 [kcal/mol]       78.972 [kJ/mol]       0.03007901 [Eh]
  Total G, Free enthalpy at  298.15 [K]                                -78.53623994 [Eh]

*** Psi4 exiting successfully. Buy a developer a beer!
