                               Psi4 1.3.2 release

  ==> Input File <==

--------------------------------------------------------------------------
memory 144 GB

molecule {
0 1
C 0.0000000000 0.0000000000 0.0000000000
Cl 0.0000000000 0.0000000000 1.7182578700
Cl 1.6229007750 0.0000000000 -0.5644494507
}

set dynamic_level 1
set basis aug-cc-pV(T+d)Z

optimize("wB97M-V")
frequencies("wB97M-V")
--------------------------------------------------------------------------

    Molecular point group: c2v
  Charge       = 0
  Multiplicity = 1
  Basis Set: AUG-CC-PV(T+D)Z
    Blend: AUG-CC-PV(T+D)Z
  Basis Set: (AUG-CC-PV(T+D)Z AUX)
    Blend: AUG-CC-PVTZ-JKFIT
  @DF-RKS Final Energy:  -958.39919100443137
    Total Energy =                       -958.3991910044313727
    Molecular point group: c2v
  Basis Set: AUG-CC-PV(T+D)Z
    Blend: AUG-CC-PV(T+D)Z
  Basis Set: (AUG-CC-PV(T+D)Z AUX)
    Blend: AUG-CC-PVTZ-JKFIT
  @DF-RKS Final Energy:  -958.39918600325939
    Total Energy =                       -958.3991860032593877
  Basis Set: AUG-CC-PV(T+D)Z
    Blend: AUG-CC-PV(T+D)Z
  Basis Set: (AUG-CC-PV(T+D)Z AUX)
    Blend: AUG-CC-PVTZ-JKFIT
  @DF-RKS Final Energy:  -958.39919553970435
    Total Energy =                       -958.3991955397042375
  Basis Set: AUG-CC-PV(T+D)Z
    Blend: AUG-CC-PV(T+D)Z
  Basis Set: (AUG-CC-PV(T+D)Z AUX)
    Blend: AUG-CC-PVTZ-JKFIT
  @DF-RKS Final Energy:  -958.39919504887916
    Total Energy =                       -958.3991950488791645
  @DF-RKS Final Energy:  -958.39918680609628
    Total Energy =                       -958.3991868060962815
  @DF-RKS Final Energy:  -958.39923645414115
    Total Energy =                       -958.3992364541411462
  @DF-RKS Final Energy:  -958.39923333085585
    Total Energy =                       -958.3992333308558500
  @DF-RKS Final Energy:  -958.39923910342111
    Total Energy =                       -958.3992391034212233
  @DF-RKS Final Energy:  -958.39923628665485
    Total Energy =                       -958.3992362866549684
  @DF-RKS Final Energy:  -958.39923646288514
    Total Energy =                       -958.3992364628852556
  @DF-RKS Final Energy:  -958.39924822174623
    Total Energy =                       -958.3992482217462339
  @DF-RKS Final Energy:  -958.39924766411468
    Total Energy =                       -958.3992476641146823
  @DF-RKS Final Energy:  -958.39924830698317
    Total Energy =                       -958.3992483069831678
  @DF-RKS Final Energy:  -958.39924818968598
    Total Energy =                       -958.3992481896858635
  @DF-RKS Final Energy:  -958.39924809403976
    Total Energy =                       -958.3992480940398764
  **** Optimization is complete! (in 3 steps) ****
    Final optimized geometry and variables:
  @DF-RKS Final Energy:  -958.39924822174578
    Total Energy =                       -958.3992482217457791
  @DF-RKS Final Energy:  -958.39924766411514
    Total Energy =                       -958.3992476641150233
  @DF-RKS Final Energy:  -958.39924830698294
    Total Energy =                       -958.3992483069829404
  @DF-RKS Final Energy:  -958.39924818968609
    Total Energy =                       -958.3992481896859772
  @DF-RKS Final Energy:  -958.39924809403885
    Total Energy =                       -958.3992480940388532
  @DF-RKS Final Energy:  -958.39924822174680
    Total Energy =                       -958.3992482217468023
  @DF-RKS Final Energy:  -958.39924766411434
    Total Energy =                       -958.3992476641144549
  @DF-RKS Final Energy:  -958.39924830698294
    Total Energy =                       -958.3992483069828268
  @DF-RKS Final Energy:  -958.39924818968655
    Total Energy =                       -958.3992481896866593
  Basis Set: AUG-CC-PV(T+D)Z
    Blend: AUG-CC-PV(T+D)Z
  Basis Set: (AUG-CC-PV(T+D)Z AUX)
    Blend: AUG-CC-PVTZ-JKFIT
  @DF-RKS Final Energy:  -958.39924809403976
    Total Energy =                       -958.3992480940397627
  Basis Set: AUG-CC-PV(T+D)Z
    Blend: AUG-CC-PV(T+D)Z
  Basis Set: (AUG-CC-PV(T+D)Z AUX)
    Blend: AUG-CC-PVTZ-JKFIT
  @DF-RKS Final Energy:  -958.39924830871746
    Total Energy =                       -958.3992483087175742
  Multiplicity = 1
  Basis Set: AUG-CC-PV(T+D)Z
    Blend: AUG-CC-PV(T+D)Z
  Basis Set: (AUG-CC-PV(T+D)Z AUX)
    Blend: AUG-CC-PVTZ-JKFIT
  @DF-RKS Final Energy:  -958.39924776174848
    Total Energy =                       -958.3992477617485974
    Molecular point group: cs

    Geometry (in Angstrom), charge = 0, multiplicity = 1:

       Center              X                  Y                   Z               Mass
    ------------   -----------------  -----------------  -----------------  -----------------
         C            0.000000000000    -0.000680775312    -0.847645687368    12.000000000000
         CL           0.000000000000     1.393083238343     0.145523395812    34.968852682000
         CL           0.000000000000    -1.392849621764     0.145356843838    34.968852682000

  Charge       = 0
  Multiplicity = 1
  Basis Set: AUG-CC-PV(T+D)Z
    Blend: AUG-CC-PV(T+D)Z
  Basis Set: (AUG-CC-PV(T+D)Z AUX)
    Blend: AUG-CC-PVTZ-JKFIT

    Orbital Energies [Eh]
    ---------------------

    Doubly Occupied:

       1Ap  -101.939617     2Ap  -101.939345     3Ap   -10.505802
       4Ap    -9.696749     5Ap    -9.696458     6Ap    -7.400245
       7Ap    -7.399959     1App   -7.395662     2App   -7.395366
       8Ap    -7.392480     9Ap    -7.392193    10Ap    -1.067000
      11Ap    -0.983872    12Ap    -0.724308    13Ap    -0.573112
      14Ap    -0.529855     3App   -0.525805     4App   -0.451855
      15Ap    -0.431166    16Ap    -0.362201

  @DF-RKS Final Energy:  -958.39924793211196

   => Energetics <=

    Nuclear Repulsion Energy =            117.9976588963964588
    One-Electron Energy =               -1555.5089972195060000
    Two-Electron Energy =                 526.3914566706015421
    DFT Exchange-Correlation Energy =     -47.4446518526296757
    Empirical Dispersion Energy =           0.0000000000000000
    VV10 Nonlocal Energy =                  0.1652855730258262
    Total Energy =                       -958.3992479321119617

  Dipole Moment: [D]
     X:     0.0000      Y:    -0.0079      Z:     1.1057     Total:     1.1057

  Vibration                       7                   8                   9
  Freq [cm^-1]                 345.6755            740.7398            782.4826
  Irrep                           A1                  A1                  B2
  Reduced mass [u]             29.4360             14.2976             13.8734
  Force const [mDyne/A]         2.0724              4.6222              5.0048

  ==> Thermochemistry Components <==

  Entropy, S
    Electronic S            0.000 [cal/(mol K)]        0.000 [J/(mol K)]       0.00000000 [mEh/K] (multiplicity = 1)
    Translational S        39.124 [cal/(mol K)]      163.696 [J/(mol K)]       0.06234835 [mEh/K] (mol. weight = 81.9377 [u], P = 101325.00 [Pa])
    Rotational S           22.347 [cal/(mol K)]       93.500 [J/(mol K)]       0.03561215 [mEh/K] (symmetry no. = 2)
    Vibrational S           1.669 [cal/(mol K)]        6.984 [J/(mol K)]       0.00266002 [mEh/K]
  Total S                  63.140 [cal/(mol K)]      264.179 [J/(mol K)]       0.10062052 [mEh/K]
  Correction S              0.000 [cal/(mol K)]        0.000 [J/(mol K)]       0.00000000 [mEh/K]

  Constant volume heat capacity, Cv
    Electronic Cv           0.000 [cal/(mol K)]        0.000 [J/(mol K)]       0.00000000 [mEh/K]
    Translational Cv        2.981 [cal/(mol K)]       12.472 [J/(mol K)]       0.00475022 [mEh/K]
    Rotational Cv           2.981 [cal/(mol K)]       12.472 [J/(mol K)]       0.00475022 [mEh/K]
    Vibrational Cv          3.017 [cal/(mol K)]       12.625 [J/(mol K)]       0.00480855 [mEh/K]
  Total Cv                  8.979 [cal/(mol K)]       37.568 [J/(mol K)]       0.01430898 [mEh/K]
  Correction Cv             0.000 [cal/(mol K)]        0.000 [J/(mol K)]       0.00000000 [mEh/K]

  Constant pressure heat capacity, Cp
    Electronic Cp           0.000 [cal/(mol K)]        0.000 [J/(mol K)]       0.00000000 [mEh/K]
    Translational Cp        4.968 [cal/(mol K)]       20.786 [J/(mol K)]       0.00791703 [mEh/K]
    Rotational Cp           2.981 [cal/(mol K)]       12.472 [J/(mol K)]       0.00475022 [mEh/K]
    Vibrational Cp          3.017 [cal/(mol K)]       12.625 [J/(mol K)]       0.00480855 [mEh/K]
  Total Cp                 10.966 [cal/(mol K)]       45.883 [J/(mol K)]       0.01747579 [mEh/K]
  Correction Cp             0.000 [cal/(mol K)]        0.000 [J/(mol K)]       0.00000000 [mEh/K]

  ==> Thermochemistry Energy Analysis <==

  Raw electronic energy, E0
  Total E0, Electronic energy at well bottom at 0 [K]                 -958.39924822 [Eh]

  Zero-point energy, ZPE_vib = Sum_i nu_i / 2
    Electronic ZPE          0.000 [kcal/mol]        0.000 [kJ/mol]       0.00000000 [Eh]
    Translational ZPE       0.000 [kcal/mol]        0.000 [kJ/mol]       0.00000000 [Eh]
    Rotational ZPE          0.000 [kcal/mol]        0.000 [kJ/mol]       0.00000000 [Eh]
    Vibrational ZPE         2.672 [kcal/mol]       11.178 [kJ/mol]       0.00425766 [Eh]         934.449 [cm^-1]
  Correction ZPE            2.672 [kcal/mol]       11.178 [kJ/mol]       0.00425766 [Eh]         934.449 [cm^-1]
  Total ZPE, Electronic energy at 0 [K]                               -958.39499056 [Eh]

  Thermal Energy, E (includes ZPE)
    Electronic E            0.000 [kcal/mol]        0.000 [kJ/mol]       0.00000000 [Eh]
    Translational E         0.889 [kcal/mol]        3.718 [kJ/mol]       0.00141628 [Eh]
    Rotational E            0.889 [kcal/mol]        3.718 [kJ/mol]       0.00141628 [Eh]
    Vibrational E           3.015 [kcal/mol]       12.615 [kJ/mol]       0.00480469 [Eh]
  Correction E              4.792 [kcal/mol]       20.052 [kJ/mol]       0.00763724 [Eh]
  Total E, Electronic energy at  298.15 [K]                           -958.39161098 [Eh]

  Enthalpy, H_trans = E_trans + k_B * T
    Electronic H            0.000 [kcal/mol]        0.000 [kJ/mol]       0.00000000 [Eh]
    Translational H         1.481 [kcal/mol]        6.197 [kJ/mol]       0.00236046 [Eh]
    Rotational H            0.889 [kcal/mol]        3.718 [kJ/mol]       0.00141628 [Eh]
    Vibrational H           3.015 [kcal/mol]       12.615 [kJ/mol]       0.00480469 [Eh]
  Correction H              5.385 [kcal/mol]       22.531 [kJ/mol]       0.00858143 [Eh]
  Total H, Enthalpy at  298.15 [K]                                    -958.39066679 [Eh]

  Gibbs free energy, G = H - T * S
    Electronic G            0.000 [kcal/mol]        0.000 [kJ/mol]       0.00000000 [Eh]
    Translational G       -10.184 [kcal/mol]      -42.608 [kJ/mol]      -0.01622870 [Eh]
    Rotational G           -5.774 [kcal/mol]      -24.158 [kJ/mol]      -0.00920148 [Eh]
    Vibrational G           2.517 [kcal/mol]       10.532 [kJ/mol]       0.00401160 [Eh]
  Correction G            -13.440 [kcal/mol]      -56.234 [kJ/mol]      -0.02141858 [Eh]
  Total G, Free enthalpy at  298.15 [K]                               -958.42066680 [Eh]

*** Psi4 exiting successfully. Buy a developer a beer!
