                               Psi4 1.3.2 release

  ==> Input File <==

--------------------------------------------------------------------------
memory 144 GB

molecule {
0 1
C 0.0000000000 0.0000000000 0.0000000000
F 0.0000000000 0.0000000000 1.2971000000
F 1.2538059978 0.0000000000 -0.3323235319
}

set dynamic_level 1
set basis aug-cc-pV(T+d)Z

optimize("wB97M-V")
frequencies("wB97M-V")
--------------------------------------------------------------------------

    Molecular point group: c2v
  Charge       = 0
  Multiplicity = 1
  Basis Set: AUG-CC-PV(T+D)Z
    Blend: AUG-CC-PV(T+D)Z
  Basis Set: (AUG-CC-PV(T+D)Z AUX)
    Blend: AUG-CC-PVTZ-JKFIT
  @DF-RKS Final Energy:  -237.74463423630448
    Total Energy =                       -237.7446342363044778
    Molecular point group: c2v
  Basis Set: AUG-CC-PV(T+D)Z
    Blend: AUG-CC-PV(T+D)Z
  Basis Set: (AUG-CC-PV(T+D)Z AUX)
    Blend: AUG-CC-PVTZ-JKFIT
  @DF-RKS Final Energy:  -237.74464284186973
    Total Energy =                       -237.7446428418697337
  Basis Set: AUG-CC-PV(T+D)Z
    Blend: AUG-CC-PV(T+D)Z
  Basis Set: (AUG-CC-PV(T+D)Z AUX)
    Blend: AUG-CC-PVTZ-JKFIT
  @DF-RKS Final Energy:  -237.74462430083099
    Total Energy =                       -237.7446243008310205
  Basis Set: AUG-CC-PV(T+D)Z
    Blend: AUG-CC-PV(T+D)Z
  Basis Set: (AUG-CC-PV(T+D)Z AUX)
    Blend: AUG-CC-PVTZ-JKFIT
  @DF-RKS Final Energy:  -237.74462982959656
    Total Energy =                       -237.7446298295965335
  @DF-RKS Final Energy:  -237.74463803552493
    Total Energy =                       -237.7446380355249289
  @DF-RKS Final Energy:  -237.74466425883745
    Total Energy =                       -237.7446642588374459
  @DF-RKS Final Energy:  -237.74466538028153
    Total Energy =                       -237.7446653802815320
  @DF-RKS Final Energy:  -237.74466182103006
    Total Energy =                       -237.7446618210300642
  @DF-RKS Final Energy:  -237.74466168901887
    Total Energy =                       -237.7446616890188693
  @DF-RKS Final Energy:  -237.74466622280409
    Total Energy =                       -237.7446662228040850
  @DF-RKS Final Energy:  -237.74466572648311
    Total Energy =                       -237.7446657264831060
  @DF-RKS Final Energy:  -237.74466489061399
    Total Energy =                       -237.7446648906139615
  @DF-RKS Final Energy:  -237.74466526109089
    Total Energy =                       -237.7446652610908870
  @DF-RKS Final Energy:  -237.74466713892201
    Total Energy =                       -237.7446671389220114
  @DF-RKS Final Energy:  -237.74466371848300
    Total Energy =                       -237.7446637184829683
  @DF-RKS Final Energy:  -237.74466856676929
    Total Energy =                       -237.7446685667692918
  @DF-RKS Final Energy:  -237.74466786640224
    Total Energy =                       -237.7446678664022670
  @DF-RKS Final Energy:  -237.74466795605269
    Total Energy =                       -237.7446679560526945
  @DF-RKS Final Energy:  -237.74466825407251
    Total Energy =                       -237.7446682540725078
  @DF-RKS Final Energy:  -237.74466827790994
    Total Energy =                       -237.7446682779099376
  **** Optimization is complete! (in 4 steps) ****
    Final optimized geometry and variables:
  @DF-RKS Final Energy:  -237.74466856676941
    Total Energy =                       -237.7446685667694055
  @DF-RKS Final Energy:  -237.74466786640215
    Total Energy =                       -237.7446678664021249
  @DF-RKS Final Energy:  -237.74466795605284
    Total Energy =                       -237.7446679560528366
  @DF-RKS Final Energy:  -237.74466825407234
    Total Energy =                       -237.7446682540723089
  @DF-RKS Final Energy:  -237.74466827790977
    Total Energy =                       -237.7446682779097671
  @DF-RKS Final Energy:  -237.74466856676943
    Total Energy =                       -237.7446685667694339
  @DF-RKS Final Energy:  -237.74466786640249
    Total Energy =                       -237.7446678664024660
  @DF-RKS Final Energy:  -237.74466795605301
    Total Energy =                       -237.7446679560530072
  @DF-RKS Final Energy:  -237.74466825407274
    Total Energy =                       -237.7446682540727352
  Basis Set: AUG-CC-PV(T+D)Z
    Blend: AUG-CC-PV(T+D)Z
  Basis Set: (AUG-CC-PV(T+D)Z AUX)
    Blend: AUG-CC-PVTZ-JKFIT
  @DF-RKS Final Energy:  -237.74466827791005
    Total Energy =                       -237.7446682779100229
  Basis Set: AUG-CC-PV(T+D)Z
    Blend: AUG-CC-PV(T+D)Z
  Basis Set: (AUG-CC-PV(T+D)Z AUX)
    Blend: AUG-CC-PVTZ-JKFIT
  @DF-RKS Final Energy:  -237.74466804973312
    Total Energy =                       -237.7446680497331215
  Multiplicity = 1
  Basis Set: AUG-CC-PV(T+D)Z
    Blend: AUG-CC-PV(T+D)Z
  Basis Set: (AUG-CC-PV(T+D)Z AUX)
    Blend: AUG-CC-PVTZ-JKFIT
  @DF-RKS Final Energy:  -237.74466794048868
    Total Energy =                       -237.7446679404886822
    Molecular point group: cs

    Geometry (in Angstrom), charge = 0, multiplicity = 1:

       Center              X                  Y                   Z               Mass
    ------------   -----------------  -----------------  -----------------  -----------------
         C            0.000000000000    -0.000622607919    -0.605328587892    12.000000000000
         F            0.000000000000     1.029350119304     0.191324642181    18.998403162730
         F            0.000000000000    -1.028956860199     0.191020283994    18.998403162730

  Charge       = 0
  Multiplicity = 1
  Basis Set: AUG-CC-PV(T+D)Z
    Blend: AUG-CC-PV(T+D)Z
  Basis Set: (AUG-CC-PV(T+D)Z AUX)
    Blend: AUG-CC-PVTZ-JKFIT

    Orbital Energies [Eh]
    ---------------------

    Doubly Occupied:

       1Ap   -24.990587     2Ap   -24.989944     3Ap   -10.556113
       4Ap    -1.481133     5Ap    -1.405635     6Ap    -0.835333
       7Ap    -0.722592     1App   -0.679111     8Ap    -0.674546
       2App   -0.597592     9Ap    -0.572426    10Ap    -0.417986

  @DF-RKS Final Energy:  -237.74466795490221

   => Energetics <=

    Nuclear Repulsion Energy =             64.7406237546932743
    One-Electron Energy =                -457.0657737442525104
    Two-Electron Energy =                 173.7066247131092496
    DFT Exchange-Correlation Energy =     -19.2267415509822754
    Empirical Dispersion Energy =           0.0000000000000000
    VV10 Nonlocal Energy =                  0.1005988725300430
    Total Energy =                       -237.7446679549022122

  Dipole Moment: [D]
     X:     0.0000      Y:    -0.0081      Z:     0.5658     Total:     0.5659

  Vibration                       7                   8                   9
  Freq [cm^-1]                 676.5476           1137.3074           1250.5652
  Irrep                           A1                  B2                  A1
  Reduced mass [u]             17.7329             13.6924             13.8487
  Force const [mDyne/A]         4.7822             10.4348             12.7606

  ==> Thermochemistry Components <==

  Entropy, S
    Electronic S            0.000 [cal/(mol K)]        0.000 [J/(mol K)]       0.00000000 [mEh/K] (multiplicity = 1)
    Translational S        37.652 [cal/(mol K)]      157.535 [J/(mol K)]       0.06000175 [mEh/K] (mol. weight = 49.9968 [u], P = 101325.00 [Pa])
    Rotational S           19.440 [cal/(mol K)]       81.337 [J/(mol K)]       0.03097949 [mEh/K] (symmetry no. = 2)
    Vibrational S           0.422 [cal/(mol K)]        1.766 [J/(mol K)]       0.00067278 [mEh/K]
  Total S                  57.514 [cal/(mol K)]      240.638 [J/(mol K)]       0.09165402 [mEh/K]
  Correction S              0.000 [cal/(mol K)]        0.000 [J/(mol K)]       0.00000000 [mEh/K]

  Constant volume heat capacity, Cv
    Electronic Cv           0.000 [cal/(mol K)]        0.000 [J/(mol K)]       0.00000000 [mEh/K]
    Translational Cv        2.981 [cal/(mol K)]       12.472 [J/(mol K)]       0.00475022 [mEh/K]
    Rotational Cv           2.981 [cal/(mol K)]       12.472 [J/(mol K)]       0.00475022 [mEh/K]
    Vibrational Cv          1.298 [cal/(mol K)]        5.433 [J/(mol K)]       0.00206920 [mEh/K]
  Total Cv                  7.260 [cal/(mol K)]       30.376 [J/(mol K)]       0.01156963 [mEh/K]
  Correction Cv             0.000 [cal/(mol K)]        0.000 [J/(mol K)]       0.00000000 [mEh/K]

  Constant pressure heat capacity, Cp
    Electronic Cp           0.000 [cal/(mol K)]        0.000 [J/(mol K)]       0.00000000 [mEh/K]
    Translational Cp        4.968 [cal/(mol K)]       20.786 [J/(mol K)]       0.00791703 [mEh/K]
    Rotational Cp           2.981 [cal/(mol K)]       12.472 [J/(mol K)]       0.00475022 [mEh/K]
    Vibrational Cp          1.298 [cal/(mol K)]        5.433 [J/(mol K)]       0.00206920 [mEh/K]
  Total Cp                  9.247 [cal/(mol K)]       38.691 [J/(mol K)]       0.01473644 [mEh/K]
  Correction Cp             0.000 [cal/(mol K)]        0.000 [J/(mol K)]       0.00000000 [mEh/K]

  ==> Thermochemistry Energy Analysis <==

  Raw electronic energy, E0
  Total E0, Electronic energy at well bottom at 0 [K]                 -237.74466857 [Eh]

  Zero-point energy, ZPE_vib = Sum_i nu_i / 2
    Electronic ZPE          0.000 [kcal/mol]        0.000 [kJ/mol]       0.00000000 [Eh]
    Translational ZPE       0.000 [kcal/mol]        0.000 [kJ/mol]       0.00000000 [Eh]
    Rotational ZPE          0.000 [kcal/mol]        0.000 [kJ/mol]       0.00000000 [Eh]
    Vibrational ZPE         4.381 [kcal/mol]       18.329 [kJ/mol]       0.00698126 [Eh]        1532.210 [cm^-1]
  Correction ZPE            4.381 [kcal/mol]       18.329 [kJ/mol]       0.00698126 [Eh]        1532.210 [cm^-1]
  Total ZPE, Electronic energy at 0 [K]                               -237.73768730 [Eh]

  Thermal Energy, E (includes ZPE)
    Electronic E            0.000 [kcal/mol]        0.000 [kJ/mol]       0.00000000 [Eh]
    Translational E         0.889 [kcal/mol]        3.718 [kJ/mol]       0.00141628 [Eh]
    Rotational E            0.889 [kcal/mol]        3.718 [kJ/mol]       0.00141628 [Eh]
    Vibrational E           4.480 [kcal/mol]       18.743 [kJ/mol]       0.00713890 [Eh]
  Correction E              6.257 [kcal/mol]       26.180 [kJ/mol]       0.00997145 [Eh]
  Total E, Electronic energy at  298.15 [K]                           -237.73469712 [Eh]

  Enthalpy, H_trans = E_trans + k_B * T
    Electronic H            0.000 [kcal/mol]        0.000 [kJ/mol]       0.00000000 [Eh]
    Translational H         1.481 [kcal/mol]        6.197 [kJ/mol]       0.00236046 [Eh]
    Rotational H            0.889 [kcal/mol]        3.718 [kJ/mol]       0.00141628 [Eh]
    Vibrational H           4.480 [kcal/mol]       18.743 [kJ/mol]       0.00713890 [Eh]
  Correction H              6.850 [kcal/mol]       28.659 [kJ/mol]       0.01091564 [Eh]
  Total H, Enthalpy at  298.15 [K]                                    -237.73375293 [Eh]

  Gibbs free energy, G = H - T * S
    Electronic G            0.000 [kcal/mol]        0.000 [kJ/mol]       0.00000000 [Eh]
    Translational G        -9.745 [kcal/mol]      -40.772 [kJ/mol]      -0.01552906 [Eh]
    Rotational G           -4.907 [kcal/mol]      -20.532 [kJ/mol]      -0.00782026 [Eh]
    Vibrational G           4.354 [kcal/mol]       18.217 [kJ/mol]       0.00693831 [Eh]
  Correction G            -10.298 [kcal/mol]      -43.087 [kJ/mol]      -0.01641101 [Eh]
  Total G, Free enthalpy at  298.15 [K]                               -237.76107958 [Eh]

*** Psi4 exiting successfully. Buy a developer a beer!
