                               Psi4 1.3.2 release

  ==> Input File <==

--------------------------------------------------------------------------
memory 144 GB

molecule {
0 1
Cl 0.0000000000 0.0000000000 0.0000000000
Cl 0.0000000000 0.0000000000 1.9965761200
}

set dynamic_level 1
set basis aug-cc-pV(T+d)Z

optimize("wB97M-V")
frequencies("wB97M-V")
--------------------------------------------------------------------------

    Molecular point group: d2h
  Charge       = 0
  Multiplicity = 1
  Basis Set: AUG-CC-PV(T+D)Z
    Blend: AUG-CC-PV(T+D)Z
  Basis Set: (AUG-CC-PV(T+D)Z AUX)
    Blend: AUG-CC-PVTZ-JKFIT
  @DF-RKS Final Energy:  -920.36524378371121
    Total Energy =                       -920.3652437837112075
    Molecular point group: d2h
  Basis Set: AUG-CC-PV(T+D)Z
    Blend: AUG-CC-PV(T+D)Z
  Basis Set: (AUG-CC-PV(T+D)Z AUX)
    Blend: AUG-CC-PVTZ-JKFIT
  @DF-RKS Final Energy:  -920.36524028230849
    Total Energy =                       -920.3652402823084913
  Basis Set: AUG-CC-PV(T+D)Z
    Blend: AUG-CC-PV(T+D)Z
  Basis Set: (AUG-CC-PV(T+D)Z AUX)
    Blend: AUG-CC-PVTZ-JKFIT
  @DF-RKS Final Energy:  -920.36524697447965
    Total Energy =                       -920.3652469744794189
  Basis Set: AUG-CC-PV(T+D)Z
    Blend: AUG-CC-PV(T+D)Z
  Basis Set: (AUG-CC-PV(T+D)Z AUX)
    Blend: AUG-CC-PVTZ-JKFIT
  @DF-RKS Final Energy:  -920.36525916452740
    Total Energy =                       -920.3652591645274015
  @DF-RKS Final Energy:  -920.36525776019903
    Total Energy =                       -920.3652577601989151
  @DF-RKS Final Energy:  -920.36526025190165
    Total Energy =                       -920.3652602519016455
  @DF-RKS Final Energy:  -920.36526160251083
    Total Energy =                       -920.3652616025109410
  @DF-RKS Final Energy:  -920.36526146169024
    Total Energy =                       -920.3652614616903520
  @DF-RKS Final Energy:  -920.36526142257367
    Total Energy =                       -920.3652614225737807
  **** Optimization is complete! (in 3 steps) ****
    Final optimized geometry and variables:
  @DF-RKS Final Energy:  -920.36526160251128
    Total Energy =                       -920.3652616025113957
  @DF-RKS Final Energy:  -920.36526146168944
    Total Energy =                       -920.3652614616894425
  Basis Set: AUG-CC-PV(T+D)Z
    Blend: AUG-CC-PV(T+D)Z
  Basis Set: (AUG-CC-PV(T+D)Z AUX)
    Blend: AUG-CC-PVTZ-JKFIT
  @DF-RKS Final Energy:  -920.36526142257480
    Total Energy =                       -920.3652614225746902
  Basis Set: AUG-CC-PV(T+D)Z
    Blend: AUG-CC-PV(T+D)Z
  Basis Set: (AUG-CC-PV(T+D)Z AUX)
    Blend: AUG-CC-PVTZ-JKFIT
  @DF-RKS Final Energy:  -920.36526160251094
    Total Energy =                       -920.3652616025108273
  Multiplicity = 1
  Basis Set: AUG-CC-PV(T+D)Z
    Blend: AUG-CC-PV(T+D)Z
  Basis Set: (AUG-CC-PV(T+D)Z AUX)
    Blend: AUG-CC-PVTZ-JKFIT
  @DF-RKS Final Energy:  -920.36526146168956
    Total Energy =                       -920.3652614616895562
    Molecular point group: d2h

    Geometry (in Angstrom), charge = 0, multiplicity = 1:

       Center              X                  Y                   Z               Mass
    ------------   -----------------  -----------------  -----------------  -----------------
         CL           0.000000000000     0.000000000000    -0.994600261225    34.968852682000
         CL           0.000000000000     0.000000000000     0.994600261225    34.968852682000

  Charge       = 0
  Multiplicity = 1
  Basis Set: AUG-CC-PV(T+D)Z
    Blend: AUG-CC-PV(T+D)Z
  Basis Set: (AUG-CC-PV(T+D)Z AUX)
    Blend: AUG-CC-PVTZ-JKFIT

    Orbital Energies [Eh]
    ---------------------

    Doubly Occupied:

       1B1u -101.949149     1Ag  -101.949145     2Ag    -9.702602
       2B1u   -9.702561     3Ag    -7.410626     3B1u   -7.410495
       1B2g   -7.397919     1B3g   -7.397919     1B3u   -7.397916
       1B2u   -7.397916     4Ag    -1.060629     4B1u   -0.889048
       5Ag    -0.566187     2B2u   -0.517094     2B3u   -0.517094
       2B3g   -0.404433     2B2g   -0.404433

  @DF-RKS Final Energy:  -920.36526142257412

   => Energetics <=

    Nuclear Repulsion Energy =             76.8812455846630201
    One-Electron Energy =               -1423.0510451826880853
    Two-Electron Energy =                 469.3080197420106856
    DFT Exchange-Correlation Energy =     -43.6457782844077258
    Empirical Dispersion Energy =           0.0000000000000000
    VV10 Nonlocal Energy =                  0.1422967178479733
    Total Energy =                       -920.3652614225741218

  Dipole Moment: [D]
     X:     0.0000      Y:     0.0000      Z:     0.0000     Total:     0.0000

  Vibration                       6
  Freq [cm^-1]                 582.2682
  Irrep                           Ag
  Reduced mass [u]             34.9689
  Force const [mDyne/A]         6.9852

  ==> Thermochemistry Components <==

  Entropy, S
    Electronic S            0.000 [cal/(mol K)]        0.000 [J/(mol K)]       0.00000000 [mEh/K] (multiplicity = 1)
    Translational S        38.652 [cal/(mol K)]      161.721 [J/(mol K)]       0.06159614 [mEh/K] (mol. weight = 69.9377 [u], P = 101325.00 [Pa])
    Rotational S           14.016 [cal/(mol K)]       58.644 [J/(mol K)]       0.02233635 [mEh/K] (symmetry no. = 2)
    Vibrational S           0.481 [cal/(mol K)]        2.013 [J/(mol K)]       0.00076680 [mEh/K]
  Total S                  53.150 [cal/(mol K)]      222.378 [J/(mol K)]       0.08469929 [mEh/K]
  Correction S              0.000 [cal/(mol K)]        0.000 [J/(mol K)]       0.00000000 [mEh/K]

  Constant volume heat capacity, Cv
    Electronic Cv           0.000 [cal/(mol K)]        0.000 [J/(mol K)]       0.00000000 [mEh/K]
    Translational Cv        2.981 [cal/(mol K)]       12.472 [J/(mol K)]       0.00475022 [mEh/K]
    Rotational Cv           1.987 [cal/(mol K)]        8.314 [J/(mol K)]       0.00316681 [mEh/K]
    Vibrational Cv          1.070 [cal/(mol K)]        4.475 [J/(mol K)]       0.00170463 [mEh/K]
  Total Cv                  6.038 [cal/(mol K)]       25.262 [J/(mol K)]       0.00962165 [mEh/K]
  Correction Cv             0.000 [cal/(mol K)]        0.000 [J/(mol K)]       0.00000000 [mEh/K]

  Constant pressure heat capacity, Cp
    Electronic Cp           0.000 [cal/(mol K)]        0.000 [J/(mol K)]       0.00000000 [mEh/K]
    Translational Cp        4.968 [cal/(mol K)]       20.786 [J/(mol K)]       0.00791703 [mEh/K]
    Rotational Cp           1.987 [cal/(mol K)]        8.314 [J/(mol K)]       0.00316681 [mEh/K]
    Vibrational Cp          1.070 [cal/(mol K)]        4.475 [J/(mol K)]       0.00170463 [mEh/K]
  Total Cp                  8.025 [cal/(mol K)]       33.576 [J/(mol K)]       0.01278846 [mEh/K]
  Correction Cp             0.000 [cal/(mol K)]        0.000 [J/(mol K)]       0.00000000 [mEh/K]

  ==> Thermochemistry Energy Analysis <==

  Raw electronic energy, E0
  Total E0, Electronic energy at well bottom at 0 [K]                 -920.36526160 [Eh]

  Zero-point energy, ZPE_vib = Sum_i nu_i / 2
    Electronic ZPE          0.000 [kcal/mol]        0.000 [kJ/mol]       0.00000000 [Eh]
    Translational ZPE       0.000 [kcal/mol]        0.000 [kJ/mol]       0.00000000 [Eh]
    Rotational ZPE          0.000 [kcal/mol]        0.000 [kJ/mol]       0.00000000 [Eh]
    Vibrational ZPE         0.832 [kcal/mol]        3.483 [kJ/mol]       0.00132650 [Eh]         291.134 [cm^-1]
  Correction ZPE            0.832 [kcal/mol]        3.483 [kJ/mol]       0.00132650 [Eh]         291.134 [cm^-1]
  Total ZPE, Electronic energy at 0 [K]                               -920.36393510 [Eh]

  Thermal Energy, E (includes ZPE)
    Electronic E            0.000 [kcal/mol]        0.000 [kJ/mol]       0.00000000 [Eh]
    Translational E         0.889 [kcal/mol]        3.718 [kJ/mol]       0.00141628 [Eh]
    Rotational E            0.592 [kcal/mol]        2.479 [kJ/mol]       0.00094418 [Eh]
    Vibrational E           0.939 [kcal/mol]        3.929 [kJ/mol]       0.00149649 [Eh]
  Correction E              2.420 [kcal/mol]       10.126 [kJ/mol]       0.00385695 [Eh]
  Total E, Electronic energy at  298.15 [K]                           -920.36140465 [Eh]

  Enthalpy, H_trans = E_trans + k_B * T
    Electronic H            0.000 [kcal/mol]        0.000 [kJ/mol]       0.00000000 [Eh]
    Translational H         1.481 [kcal/mol]        6.197 [kJ/mol]       0.00236046 [Eh]
    Rotational H            0.592 [kcal/mol]        2.479 [kJ/mol]       0.00094418 [Eh]
    Vibrational H           0.939 [kcal/mol]        3.929 [kJ/mol]       0.00149649 [Eh]
  Correction H              3.013 [kcal/mol]       12.605 [kJ/mol]       0.00480114 [Eh]
  Total H, Enthalpy at  298.15 [K]                                    -920.36046047 [Eh]

  Gibbs free energy, G = H - T * S
    Electronic G            0.000 [kcal/mol]        0.000 [kJ/mol]       0.00000000 [Eh]
    Translational G       -10.043 [kcal/mol]      -42.020 [kJ/mol]      -0.01600443 [Eh]
    Rotational G           -3.586 [kcal/mol]      -15.006 [kJ/mol]      -0.00571540 [Eh]
    Vibrational G           0.796 [kcal/mol]        3.329 [kJ/mol]       0.00126787 [Eh]
  Correction G            -12.834 [kcal/mol]      -53.697 [kJ/mol]      -0.02045196 [Eh]
  Total G, Free enthalpy at  298.15 [K]                               -920.38571356 [Eh]

*** Psi4 exiting successfully. Buy a developer a beer!
