                               Psi4 1.3.2 release

  ==> Input File <==

--------------------------------------------------------------------------
memory 144 GB

molecule {
0 1
Cl 0.0000000000 0.0000000000 0.0000000000
C 0.0000000000 0.0000000000 1.6357056100
N 0.0000000000 0.0000000000 2.7976884200
}

set dynamic_level 1
set basis aug-cc-pV(T+d)Z

optimize("wB97M-V")
frequencies("wB97M-V")
--------------------------------------------------------------------------

    Molecular point group: c2v
  Charge       = 0
  Multiplicity = 1
  Basis Set: AUG-CC-PV(T+D)Z
    Blend: AUG-CC-PV(T+D)Z
  Basis Set: (AUG-CC-PV(T+D)Z AUX)
    Blend: AUG-CC-PVTZ-JKFIT
  @DF-RKS Final Energy:  -553.02645166665536
    Total Energy =                       -553.0264516666554755
    Molecular point group: c2v
  Basis Set: AUG-CC-PV(T+D)Z
    Blend: AUG-CC-PV(T+D)Z
  Basis Set: (AUG-CC-PV(T+D)Z AUX)
    Blend: AUG-CC-PVTZ-JKFIT
  @DF-RKS Final Energy:  -553.02644917106988
    Total Energy =                       -553.0264491710699986
  Basis Set: AUG-CC-PV(T+D)Z
    Blend: AUG-CC-PV(T+D)Z
  Basis Set: (AUG-CC-PV(T+D)Z AUX)
    Blend: AUG-CC-PVTZ-JKFIT
  @DF-RKS Final Energy:  -553.02645358932364
    Total Energy =                       -553.0264535893235234
  Basis Set: AUG-CC-PV(T+D)Z
    Blend: AUG-CC-PV(T+D)Z
  Basis Set: (AUG-CC-PV(T+D)Z AUX)
    Blend: AUG-CC-PVTZ-JKFIT
  @DF-RKS Final Energy:  -553.02639354917881
    Total Energy =                       -553.0263935491788061
  @DF-RKS Final Energy:  -553.02650495302794
    Total Energy =                       -553.0265049530278247
  @DF-RKS Final Energy:  -553.02680906223611
    Total Energy =                       -553.0268090622359978
  @DF-RKS Final Energy:  -553.02680878524268
    Total Energy =                       -553.0268087852425651
  @DF-RKS Final Energy:  -553.02680875430428
    Total Energy =                       -553.0268087543043976
  @DF-RKS Final Energy:  -553.02680437684046
    Total Energy =                       -553.0268043768405732
  @DF-RKS Final Energy:  -553.02680853261938
    Total Energy =                       -553.0268085326194978
  @DF-RKS Final Energy:  -553.02680949653109
    Total Energy =                       -553.0268094965310866
  @DF-RKS Final Energy:  -553.02680923028367
    Total Energy =                       -553.0268092302837886
  @DF-RKS Final Energy:  -553.02680918400199
    Total Energy =                       -553.0268091840018769
  @DF-RKS Final Energy:  -553.02680694331843
    Total Energy =                       -553.0268069433184337
  @DF-RKS Final Energy:  -553.02680682194080
    Total Energy =                       -553.0268068219407951
  **** Optimization is complete! (in 3 steps) ****
    Final optimized geometry and variables:
  @DF-RKS Final Energy:  -553.02680949653086
    Total Energy =                       -553.0268094965307455
  @DF-RKS Final Energy:  -553.02680923028436
    Total Energy =                       -553.0268092302842433
  @DF-RKS Final Energy:  -553.02680918400154
    Total Energy =                       -553.0268091840015359
  @DF-RKS Final Energy:  -553.02680694331832
    Total Energy =                       -553.0268069433183200
  @DF-RKS Final Energy:  -553.02680682194011
    Total Energy =                       -553.0268068219401130
  @DF-RKS Final Energy:  -553.02680949653177
    Total Energy =                       -553.0268094965318824
  @DF-RKS Final Energy:  -553.02680923028424
    Total Energy =                       -553.0268092302842433
  @DF-RKS Final Energy:  -553.02680918400188
    Total Energy =                       -553.0268091840018769
  @DF-RKS Final Energy:  -553.02680694331866
    Total Energy =                       -553.0268069433186611
  @DF-RKS Final Energy:  -553.02680682194068
    Total Energy =                       -553.0268068219405677
  Basis Set: AUG-CC-PV(T+D)Z
    Blend: AUG-CC-PV(T+D)Z
  Basis Set: (AUG-CC-PV(T+D)Z AUX)
    Blend: AUG-CC-PVTZ-JKFIT
  @DF-RKS Final Energy:  -553.02680693762500
    Total Energy =                       -553.0268069376251105
  Basis Set: AUG-CC-PV(T+D)Z
    Blend: AUG-CC-PV(T+D)Z
  Basis Set: (AUG-CC-PV(T+D)Z AUX)
    Blend: AUG-CC-PVTZ-JKFIT
  @DF-RKS Final Energy:  -553.02680710895993
    Total Energy =                       -553.0268071089600426
  Multiplicity = 1
  Basis Set: AUG-CC-PV(T+D)Z
    Blend: AUG-CC-PV(T+D)Z
  Basis Set: (AUG-CC-PV(T+D)Z AUX)
    Blend: AUG-CC-PVTZ-JKFIT
  @DF-RKS Final Energy:  -553.02680941909364
    Total Energy =                       -553.0268094190936381
    Molecular point group: cs

    Geometry (in Angstrom), charge = 0, multiplicity = 1:

       Center              X                  Y                   Z               Mass
    ------------   -----------------  -----------------  -----------------  -----------------
         CL           0.000000000000    -0.000093028647    -0.960693162392    34.968852682000
         C            0.000000000000     0.000656444136     0.673018817951    12.000000000000
         N            0.000000000000    -0.000330229247     1.822322144754    14.003074004430

  Charge       = 0
  Multiplicity = 1
  Basis Set: AUG-CC-PV(T+D)Z
    Blend: AUG-CC-PV(T+D)Z
  Basis Set: (AUG-CC-PV(T+D)Z AUX)
    Blend: AUG-CC-PVTZ-JKFIT

    Orbital Energies [Eh]
    ---------------------

    Doubly Occupied:

       1Ap  -101.981242     2Ap   -14.534771     3Ap   -10.448060
       4Ap    -9.736820     5Ap    -7.442778     1App   -7.433027
       6Ap    -7.433027     7Ap    -1.093191     8Ap    -1.033261
       9Ap    -0.686574     2App   -0.552386    10Ap    -0.552386
      11Ap    -0.502955     3App   -0.436779    12Ap    -0.436779

  @DF-RKS Final Energy:  -553.02680941975234

   => Energetics <=

    Nuclear Repulsion Energy =             75.0043817916557884
    One-Electron Energy =                -908.2820078410295537
    Two-Electron Energy =                 310.7562416010458151
    DFT Exchange-Correlation Energy =     -30.6298115536991453
    Empirical Dispersion Energy =           0.0000000000000000
    VV10 Nonlocal Energy =                  0.1243865822747922
    Total Energy =                       -553.0268094197523396

  Dipole Moment: [D]
     X:     0.0000      Y:     0.0007      Z:    -2.9639     Total:     2.9639

  Vibration                       6                   7                   8
  Freq [cm^-1]                 402.8763            404.6008            755.0260
  Irrep                           B2                  B1                  A1
  Reduced mass [u]             12.7605             12.7605             17.9634
  Force const [mDyne/A]         1.2203              1.2308              6.0334

  Vibration                       9
  Freq [cm^-1]                2359.5342
  Irrep                           A1
  Reduced mass [u]             12.7435
  Force const [mDyne/A]        41.8015

  ==> Thermochemistry Components <==

  Entropy, S
    Electronic S            0.000 [cal/(mol K)]        0.000 [J/(mol K)]       0.00000000 [mEh/K] (multiplicity = 1)
    Translational S        38.243 [cal/(mol K)]      160.010 [J/(mol K)]       0.06094445 [mEh/K] (mol. weight = 60.9719 [u], P = 101325.00 [Pa])
    Rotational S           15.783 [cal/(mol K)]       66.036 [J/(mol K)]       0.02515186 [mEh/K] (symmetry no. = 1)
    Vibrational S           2.145 [cal/(mol K)]        8.977 [J/(mol K)]       0.00341905 [mEh/K]
  Total S                  56.172 [cal/(mol K)]      235.023 [J/(mol K)]       0.08951535 [mEh/K]
  Correction S              0.000 [cal/(mol K)]        0.000 [J/(mol K)]       0.00000000 [mEh/K]

  Constant volume heat capacity, Cv
    Electronic Cv           0.000 [cal/(mol K)]        0.000 [J/(mol K)]       0.00000000 [mEh/K]
    Translational Cv        2.981 [cal/(mol K)]       12.472 [J/(mol K)]       0.00475022 [mEh/K]
    Rotational Cv           1.987 [cal/(mol K)]        8.314 [J/(mol K)]       0.00316681 [mEh/K]
    Vibrational Cv          3.655 [cal/(mol K)]       15.291 [J/(mol K)]       0.00582419 [mEh/K]
  Total Cv                  8.623 [cal/(mol K)]       36.078 [J/(mol K)]       0.01374121 [mEh/K]
  Correction Cv             0.000 [cal/(mol K)]        0.000 [J/(mol K)]       0.00000000 [mEh/K]

  Constant pressure heat capacity, Cp
    Electronic Cp           0.000 [cal/(mol K)]        0.000 [J/(mol K)]       0.00000000 [mEh/K]
    Translational Cp        4.968 [cal/(mol K)]       20.786 [J/(mol K)]       0.00791703 [mEh/K]
    Rotational Cp           1.987 [cal/(mol K)]        8.314 [J/(mol K)]       0.00316681 [mEh/K]
    Vibrational Cp          3.655 [cal/(mol K)]       15.291 [J/(mol K)]       0.00582419 [mEh/K]
  Total Cp                 10.610 [cal/(mol K)]       44.392 [J/(mol K)]       0.01690802 [mEh/K]
  Correction Cp             0.000 [cal/(mol K)]        0.000 [J/(mol K)]       0.00000000 [mEh/K]

  ==> Thermochemistry Energy Analysis <==

  Raw electronic energy, E0
  Total E0, Electronic energy at well bottom at 0 [K]                 -553.02680950 [Eh]

  Zero-point energy, ZPE_vib = Sum_i nu_i / 2
    Electronic ZPE          0.000 [kcal/mol]        0.000 [kJ/mol]       0.00000000 [Eh]
    Translational ZPE       0.000 [kcal/mol]        0.000 [kJ/mol]       0.00000000 [Eh]
    Rotational ZPE          0.000 [kcal/mol]        0.000 [kJ/mol]       0.00000000 [Eh]
    Vibrational ZPE         5.607 [kcal/mol]       23.459 [kJ/mol]       0.00893506 [Eh]        1961.019 [cm^-1]
  Correction ZPE            5.607 [kcal/mol]       23.459 [kJ/mol]       0.00893506 [Eh]        1961.019 [cm^-1]
  Total ZPE, Electronic energy at 0 [K]                               -553.01787444 [Eh]

  Thermal Energy, E (includes ZPE)
    Electronic E            0.000 [kcal/mol]        0.000 [kJ/mol]       0.00000000 [Eh]
    Translational E         0.889 [kcal/mol]        3.718 [kJ/mol]       0.00141628 [Eh]
    Rotational E            0.592 [kcal/mol]        2.479 [kJ/mol]       0.00094418 [Eh]
    Vibrational E           6.049 [kcal/mol]       25.307 [kJ/mol]       0.00963907 [Eh]
  Correction E              7.530 [kcal/mol]       31.505 [kJ/mol]       0.01199953 [Eh]
  Total E, Electronic energy at  298.15 [K]                           -553.01480997 [Eh]

  Enthalpy, H_trans = E_trans + k_B * T
    Electronic H            0.000 [kcal/mol]        0.000 [kJ/mol]       0.00000000 [Eh]
    Translational H         1.481 [kcal/mol]        6.197 [kJ/mol]       0.00236046 [Eh]
    Rotational H            0.592 [kcal/mol]        2.479 [kJ/mol]       0.00094418 [Eh]
    Vibrational H           6.049 [kcal/mol]       25.307 [kJ/mol]       0.00963907 [Eh]
  Correction H              8.122 [kcal/mol]       33.984 [kJ/mol]       0.01294371 [Eh]
  Total H, Enthalpy at  298.15 [K]                                    -553.01386578 [Eh]

  Gibbs free energy, G = H - T * S
    Electronic G            0.000 [kcal/mol]        0.000 [kJ/mol]       0.00000000 [Eh]
    Translational G        -9.921 [kcal/mol]      -41.509 [kJ/mol]      -0.01581013 [Eh]
    Rotational G           -4.113 [kcal/mol]      -17.210 [kJ/mol]      -0.00655484 [Eh]
    Vibrational G           5.409 [kcal/mol]       22.631 [kJ/mol]       0.00861968 [Eh]
  Correction G             -8.625 [kcal/mol]      -36.088 [kJ/mol]      -0.01374529 [Eh]
  Total G, Free enthalpy at  298.15 [K]                               -553.04055479 [Eh]

*** Psi4 exiting successfully. Buy a developer a beer!
