                               Psi4 1.3.2 release

  ==> Input File <==

--------------------------------------------------------------------------
memory 144 GB

molecule {
0 1
Cl 0.0000000000 0.0000000000 0.0000000000
F 0.0000000000 0.0000000000 1.6318233300
}

set dynamic_level 1
set basis aug-cc-pV(T+d)Z

optimize("wB97M-V")
frequencies("wB97M-V")
--------------------------------------------------------------------------

    Molecular point group: c2v
  Charge       = 0
  Multiplicity = 1
  Basis Set: AUG-CC-PV(T+D)Z
    Blend: AUG-CC-PV(T+D)Z
  Basis Set: (AUG-CC-PV(T+D)Z AUX)
    Blend: AUG-CC-PVTZ-JKFIT
  @DF-RKS Final Energy:  -559.97671600886997
    Total Energy =                       -559.9767160088699711
    Molecular point group: c2v
  Basis Set: AUG-CC-PV(T+D)Z
    Blend: AUG-CC-PV(T+D)Z
  Basis Set: (AUG-CC-PV(T+D)Z AUX)
    Blend: AUG-CC-PVTZ-JKFIT
  @DF-RKS Final Energy:  -559.97671028393052
    Total Energy =                       -559.9767102839305153
  Basis Set: AUG-CC-PV(T+D)Z
    Blend: AUG-CC-PV(T+D)Z
  Basis Set: (AUG-CC-PV(T+D)Z AUX)
    Blend: AUG-CC-PVTZ-JKFIT
  @DF-RKS Final Energy:  -559.97672110819337
    Total Energy =                       -559.9767211081932601
  Basis Set: AUG-CC-PV(T+D)Z
    Blend: AUG-CC-PV(T+D)Z
  Basis Set: (AUG-CC-PV(T+D)Z AUX)
    Blend: AUG-CC-PVTZ-JKFIT
  @DF-RKS Final Energy:  -559.97673688754583
    Total Energy =                       -559.9767368875458260
  @DF-RKS Final Energy:  -559.97673486079054
    Total Energy =                       -559.9767348607905433
  @DF-RKS Final Energy:  -559.97673827410790
    Total Energy =                       -559.9767382741077881
  @DF-RKS Final Energy:  -559.97673915448581
    Total Energy =                       -559.9767391544859265
  @DF-RKS Final Energy:  -559.97673885968413
    Total Energy =                       -559.9767388596840192
  @DF-RKS Final Energy:  -559.97673880213085
    Total Energy =                       -559.9767388021308534
  **** Optimization is complete! (in 3 steps) ****
    Final optimized geometry and variables:
  @DF-RKS Final Energy:  -559.97673915448593
    Total Energy =                       -559.9767391544858128
  @DF-RKS Final Energy:  -559.97673885968368
    Total Energy =                       -559.9767388596836781
  Basis Set: AUG-CC-PV(T+D)Z
    Blend: AUG-CC-PV(T+D)Z
  Basis Set: (AUG-CC-PV(T+D)Z AUX)
    Blend: AUG-CC-PVTZ-JKFIT
  @DF-RKS Final Energy:  -559.97673880212983
    Total Energy =                       -559.9767388021298302
  Basis Set: AUG-CC-PV(T+D)Z
    Blend: AUG-CC-PV(T+D)Z
  Basis Set: (AUG-CC-PV(T+D)Z AUX)
    Blend: AUG-CC-PVTZ-JKFIT
  @DF-RKS Final Energy:  -559.97673915448615
    Total Energy =                       -559.9767391544862676
  Multiplicity = 1
  Basis Set: AUG-CC-PV(T+D)Z
    Blend: AUG-CC-PV(T+D)Z
  Basis Set: (AUG-CC-PV(T+D)Z AUX)
    Blend: AUG-CC-PVTZ-JKFIT
  @DF-RKS Final Energy:  -559.97673885968391
    Total Energy =                       -559.9767388596840192
    Molecular point group: c2v

    Geometry (in Angstrom), charge = 0, multiplicity = 1:

       Center              X                  Y                   Z               Mass
    ------------   -----------------  -----------------  -----------------  -----------------
         CL           0.000000000000     0.000000000000    -0.571925033978    34.968852682000
         F            0.000000000000     0.000000000000     1.052697012850    18.998403162730

  Charge       = 0
  Multiplicity = 1
  Basis Set: AUG-CC-PV(T+D)Z
    Blend: AUG-CC-PV(T+D)Z
  Basis Set: (AUG-CC-PV(T+D)Z AUX)
    Blend: AUG-CC-PVTZ-JKFIT

    Orbital Energies [Eh]
    ---------------------

    Doubly Occupied:

       1A1  -101.980641     2A1   -24.964967     3A1    -9.731170
       4A1    -7.441919     1B2    -7.425296     1B1    -7.425296
       5A1    -1.383196     6A1    -0.961512     7A1    -0.644069
       2B2    -0.608141     2B1    -0.608141     3B2    -0.435996
       3B1    -0.435996

  @DF-RKS Final Energy:  -559.97673880213063

   => Energetics <=

    Nuclear Repulsion Energy =             49.8356607868193677
    One-Electron Energy =                -873.0638247441420390
    Two-Electron Energy =                 292.6547185139370981
    DFT Exchange-Correlation Energy =     -29.5131255671297055
    Empirical Dispersion Energy =           0.0000000000000000
    VV10 Nonlocal Energy =                  0.1098322083845519
    Total Energy =                       -559.9767388021306260

  Dipole Moment: [D]
     X:     0.0000      Y:     0.0000      Z:    -0.8688     Total:     0.8688

  Vibration                       6
  Freq [cm^-1]                 827.0645
  Irrep                           A1
  Reduced mass [u]             22.6381
  Force const [mDyne/A]         9.1236

  ==> Thermochemistry Components <==

  Entropy, S
    Electronic S            0.000 [cal/(mol K)]        0.000 [J/(mol K)]       0.00000000 [mEh/K] (multiplicity = 1)
    Translational S        37.879 [cal/(mol K)]      158.488 [J/(mol K)]       0.06036475 [mEh/K] (mol. weight = 53.9673 [u], P = 101325.00 [Pa])
    Rotational S           13.892 [cal/(mol K)]       58.126 [J/(mol K)]       0.02213890 [mEh/K] (symmetry no. = 1)
    Vibrational S           0.186 [cal/(mol K)]        0.780 [J/(mol K)]       0.00029702 [mEh/K]
  Total S                  51.958 [cal/(mol K)]      217.393 [J/(mol K)]       0.08280066 [mEh/K]
  Correction S              0.000 [cal/(mol K)]        0.000 [J/(mol K)]       0.00000000 [mEh/K]

  Constant volume heat capacity, Cv
    Electronic Cv           0.000 [cal/(mol K)]        0.000 [J/(mol K)]       0.00000000 [mEh/K]
    Translational Cv        2.981 [cal/(mol K)]       12.472 [J/(mol K)]       0.00475022 [mEh/K]
    Rotational Cv           1.987 [cal/(mol K)]        8.314 [J/(mol K)]       0.00316681 [mEh/K]
    Vibrational Cv          0.607 [cal/(mol K)]        2.540 [J/(mol K)]       0.00096757 [mEh/K]
  Total Cv                  5.575 [cal/(mol K)]       23.327 [J/(mol K)]       0.00888460 [mEh/K]
  Correction Cv             0.000 [cal/(mol K)]        0.000 [J/(mol K)]       0.00000000 [mEh/K]

  Constant pressure heat capacity, Cp
    Electronic Cp           0.000 [cal/(mol K)]        0.000 [J/(mol K)]       0.00000000 [mEh/K]
    Translational Cp        4.968 [cal/(mol K)]       20.786 [J/(mol K)]       0.00791703 [mEh/K]
    Rotational Cp           1.987 [cal/(mol K)]        8.314 [J/(mol K)]       0.00316681 [mEh/K]
    Vibrational Cp          0.607 [cal/(mol K)]        2.540 [J/(mol K)]       0.00096757 [mEh/K]
  Total Cp                  7.562 [cal/(mol K)]       31.641 [J/(mol K)]       0.01205141 [mEh/K]
  Correction Cp             0.000 [cal/(mol K)]        0.000 [J/(mol K)]       0.00000000 [mEh/K]

  ==> Thermochemistry Energy Analysis <==

  Raw electronic energy, E0
  Total E0, Electronic energy at well bottom at 0 [K]                 -559.97673915 [Eh]

  Zero-point energy, ZPE_vib = Sum_i nu_i / 2
    Electronic ZPE          0.000 [kcal/mol]        0.000 [kJ/mol]       0.00000000 [Eh]
    Translational ZPE       0.000 [kcal/mol]        0.000 [kJ/mol]       0.00000000 [Eh]
    Rotational ZPE          0.000 [kcal/mol]        0.000 [kJ/mol]       0.00000000 [Eh]
    Vibrational ZPE         1.182 [kcal/mol]        4.947 [kJ/mol]       0.00188419 [Eh]         413.532 [cm^-1]
  Correction ZPE            1.182 [kcal/mol]        4.947 [kJ/mol]       0.00188419 [Eh]         413.532 [cm^-1]
  Total ZPE, Electronic energy at 0 [K]                               -559.97485496 [Eh]

  Thermal Energy, E (includes ZPE)
    Electronic E            0.000 [kcal/mol]        0.000 [kJ/mol]       0.00000000 [Eh]
    Translational E         0.889 [kcal/mol]        3.718 [kJ/mol]       0.00141628 [Eh]
    Rotational E            0.592 [kcal/mol]        2.479 [kJ/mol]       0.00094418 [Eh]
    Vibrational E           1.227 [kcal/mol]        5.133 [kJ/mol]       0.00195514 [Eh]
  Correction E              2.708 [kcal/mol]       11.331 [kJ/mol]       0.00431560 [Eh]
  Total E, Electronic energy at  298.15 [K]                           -559.97242356 [Eh]

  Enthalpy, H_trans = E_trans + k_B * T
    Electronic H            0.000 [kcal/mol]        0.000 [kJ/mol]       0.00000000 [Eh]
    Translational H         1.481 [kcal/mol]        6.197 [kJ/mol]       0.00236046 [Eh]
    Rotational H            0.592 [kcal/mol]        2.479 [kJ/mol]       0.00094418 [Eh]
    Vibrational H           1.227 [kcal/mol]        5.133 [kJ/mol]       0.00195514 [Eh]
  Correction H              3.301 [kcal/mol]       13.810 [kJ/mol]       0.00525978 [Eh]
  Total H, Enthalpy at  298.15 [K]                                    -559.97147937 [Eh]

  Gibbs free energy, G = H - T * S
    Electronic G            0.000 [kcal/mol]        0.000 [kJ/mol]       0.00000000 [Eh]
    Translational G        -9.813 [kcal/mol]      -41.056 [kJ/mol]      -0.01563729 [Eh]
    Rotational G           -3.550 [kcal/mol]      -14.851 [kJ/mol]      -0.00565653 [Eh]
    Vibrational G           1.171 [kcal/mol]        4.901 [kJ/mol]       0.00186658 [Eh]
  Correction G            -12.191 [kcal/mol]      -51.006 [kJ/mol]      -0.01942724 [Eh]
  Total G, Free enthalpy at  298.15 [K]                               -559.99616639 [Eh]

*** Psi4 exiting successfully. Buy a developer a beer!
