                               Psi4 1.3.2 release

  ==> Input File <==

--------------------------------------------------------------------------
memory 144 GB

molecule {
0 1
C 0.0000000000 0.0000000000 0.0000000000
O 0.0000000000 0.0000000000 1.1626000000
O 0.0000000000 0.0000000000 -1.1626000000
}

set dynamic_level 1
set basis aug-cc-pV(T+d)Z

optimize("wB97M-V")
frequencies("wB97M-V")
--------------------------------------------------------------------------

    Molecular point group: d2h
  Charge       = 0
  Multiplicity = 1
  Basis Set: AUG-CC-PV(T+D)Z
    Blend: AUG-CC-PV(T+D)Z
  Basis Set: (AUG-CC-PV(T+D)Z AUX)
    Blend: AUG-CC-PVTZ-JKFIT
  @DF-RKS Final Energy:  -188.61598593846091
    Total Energy =                       -188.6159859384609092
    Molecular point group: d2h
  Basis Set: AUG-CC-PV(T+D)Z
    Blend: AUG-CC-PV(T+D)Z
  Basis Set: (AUG-CC-PV(T+D)Z AUX)
    Blend: AUG-CC-PVTZ-JKFIT
  @DF-RKS Final Energy:  -188.61599826018295
    Total Energy =                       -188.6159982601829483
  Basis Set: AUG-CC-PV(T+D)Z
    Blend: AUG-CC-PV(T+D)Z
  Basis Set: (AUG-CC-PV(T+D)Z AUX)
    Blend: AUG-CC-PVTZ-JKFIT
  @DF-RKS Final Energy:  -188.61597183426403
    Total Energy =                       -188.6159718342640303
  Basis Set: AUG-CC-PV(T+D)Z
    Blend: AUG-CC-PV(T+D)Z
  Basis Set: (AUG-CC-PV(T+D)Z AUX)
    Blend: AUG-CC-PVTZ-JKFIT
  @DF-RKS Final Energy:  -188.61603424506080
    Total Energy =                       -188.6160342450608027
  @DF-RKS Final Energy:  -188.61603448863298
    Total Energy =                       -188.6160344886330051
  @DF-RKS Final Energy:  -188.61603217532218
    Total Energy =                       -188.6160321753221751
  @DF-RKS Final Energy:  -188.61603460874167
    Total Energy =                       -188.6160346087416713
  @DF-RKS Final Energy:  -188.61603368409715
    Total Energy =                       -188.6160336840971468
  @DF-RKS Final Energy:  -188.61603371429348
    Total Energy =                       -188.6160337142934793
  **** Optimization is complete! (in 3 steps) ****
    Final optimized geometry and variables:
  @DF-RKS Final Energy:  -188.61603460874159
    Total Energy =                       -188.6160346087415860
  @DF-RKS Final Energy:  -188.61603368409709
    Total Energy =                       -188.6160336840970899
  @DF-RKS Final Energy:  -188.61603371429368
    Total Energy =                       -188.6160337142937067
  @DF-RKS Final Energy:  -188.61603460874173
    Total Energy =                       -188.6160346087417281
  @DF-RKS Final Energy:  -188.61603368409720
    Total Energy =                       -188.6160336840972036
  Basis Set: AUG-CC-PV(T+D)Z
    Blend: AUG-CC-PV(T+D)Z
  Basis Set: (AUG-CC-PV(T+D)Z AUX)
    Blend: AUG-CC-PVTZ-JKFIT
  @DF-RKS Final Energy:  -188.61603371429374
    Total Energy =                       -188.6160337142937351
  Basis Set: AUG-CC-PV(T+D)Z
    Blend: AUG-CC-PV(T+D)Z
  Basis Set: (AUG-CC-PV(T+D)Z AUX)
    Blend: AUG-CC-PVTZ-JKFIT
  @DF-RKS Final Energy:  -188.61603185770360
    Total Energy =                       -188.6160318577036037
  Multiplicity = 1
  Basis Set: AUG-CC-PV(T+D)Z
    Blend: AUG-CC-PV(T+D)Z
  Basis Set: (AUG-CC-PV(T+D)Z AUX)
    Blend: AUG-CC-PVTZ-JKFIT
  @DF-RKS Final Energy:  -188.61603438756464
    Total Energy =                       -188.6160343875646390
    Molecular point group: c2v

    Geometry (in Angstrom), charge = 0, multiplicity = 1:

       Center              X                  Y                   Z               Mass
    ------------   -----------------  -----------------  -----------------  -----------------
         C           -0.000651343880     0.000000000000     0.000000000000    12.000000000000
         O            0.000244331612     0.000000000000     1.159163449840    15.994914619570
         O            0.000244331612     0.000000000000    -1.159163449840    15.994914619570

  Charge       = 0
  Multiplicity = 1
  Basis Set: AUG-CC-PV(T+D)Z
    Blend: AUG-CC-PV(T+D)Z
  Basis Set: (AUG-CC-PV(T+D)Z AUX)
    Blend: AUG-CC-PVTZ-JKFIT

    Orbital Energies [Eh]
    ---------------------

    Doubly Occupied:

       1B2   -19.419169     1A1   -19.419108     2A1   -10.540448
       3A1    -1.299087     2B2    -1.256253     4A1    -0.685466
       3B2    -0.637702     1B1    -0.637450     5A1    -0.637450
       1A2    -0.480177     4B2    -0.480177

  @DF-RKS Final Energy:  -188.61603438645770

   => Energetics <=

    Nuclear Repulsion Energy =             58.4340955623727893
    One-Electron Energy =                -372.8324925440273319
    Two-Electron Energy =                 142.0829126686953430
    DFT Exchange-Correlation Energy =     -16.3922926920704768
    Empirical Dispersion Energy =           0.0000000000000000
    VV10 Nonlocal Energy =                  0.0917426185719585
    Total Energy =                       -188.6160343864576703

  Dipole Moment: [D]
     X:    -0.0023      Y:     0.0000      Z:     0.0000     Total:     0.0023

  Vibration                       6                   7                   8
  Freq [cm^-1]                 683.7846            685.4936           1386.6334
  Irrep                          B2u                 B3u                  Ag
  Reduced mass [u]             12.8774             12.8774             15.9949
  Force const [mDyne/A]         3.5474              3.5652             18.1199

  Vibration                       9
  Freq [cm^-1]                2411.5572
  Irrep                          B1u
  Reduced mass [u]             12.8774
  Force const [mDyne/A]        44.1238

  ==> Thermochemistry Components <==

  Entropy, S
    Electronic S            0.000 [cal/(mol K)]        0.000 [J/(mol K)]       0.00000000 [mEh/K] (multiplicity = 1)
    Translational S        37.270 [cal/(mol K)]      155.938 [J/(mol K)]       0.05939371 [mEh/K] (mol. weight = 43.9898 [u], P = 101325.00 [Pa])
    Rotational S           13.069 [cal/(mol K)]       54.681 [J/(mol K)]       0.02082706 [mEh/K] (symmetry no. = 2)
    Vibrational S           0.669 [cal/(mol K)]        2.798 [J/(mol K)]       0.00106587 [mEh/K]
  Total S                  51.008 [cal/(mol K)]      213.418 [J/(mol K)]       0.08128665 [mEh/K]
  Correction S              0.000 [cal/(mol K)]        0.000 [J/(mol K)]       0.00000000 [mEh/K]

  Constant volume heat capacity, Cv
    Electronic Cv           0.000 [cal/(mol K)]        0.000 [J/(mol K)]       0.00000000 [mEh/K]
    Translational Cv        2.981 [cal/(mol K)]       12.472 [J/(mol K)]       0.00475022 [mEh/K]
    Rotational Cv           1.987 [cal/(mol K)]        8.314 [J/(mol K)]       0.00316681 [mEh/K]
    Vibrational Cv          1.831 [cal/(mol K)]        7.661 [J/(mol K)]       0.00291782 [mEh/K]
  Total Cv                  6.799 [cal/(mol K)]       28.447 [J/(mol K)]       0.01083484 [mEh/K]
  Correction Cv             0.000 [cal/(mol K)]        0.000 [J/(mol K)]       0.00000000 [mEh/K]

  Constant pressure heat capacity, Cp
    Electronic Cp           0.000 [cal/(mol K)]        0.000 [J/(mol K)]       0.00000000 [mEh/K]
    Translational Cp        4.968 [cal/(mol K)]       20.786 [J/(mol K)]       0.00791703 [mEh/K]
    Rotational Cp           1.987 [cal/(mol K)]        8.314 [J/(mol K)]       0.00316681 [mEh/K]
    Vibrational Cp          1.831 [cal/(mol K)]        7.661 [J/(mol K)]       0.00291782 [mEh/K]
  Total Cp                  8.786 [cal/(mol K)]       36.761 [J/(mol K)]       0.01400166 [mEh/K]
  Correction Cp             0.000 [cal/(mol K)]        0.000 [J/(mol K)]       0.00000000 [mEh/K]

  ==> Thermochemistry Energy Analysis <==

  Raw electronic energy, E0
  Total E0, Electronic energy at well bottom at 0 [K]                 -188.61603461 [Eh]

  Zero-point energy, ZPE_vib = Sum_i nu_i / 2
    Electronic ZPE          0.000 [kcal/mol]        0.000 [kJ/mol]       0.00000000 [Eh]
    Translational ZPE       0.000 [kcal/mol]        0.000 [kJ/mol]       0.00000000 [Eh]
    Rotational ZPE          0.000 [kcal/mol]        0.000 [kJ/mol]       0.00000000 [Eh]
    Vibrational ZPE         7.387 [kcal/mol]       30.908 [kJ/mol]       0.01177236 [Eh]        2583.734 [cm^-1]
  Correction ZPE            7.387 [kcal/mol]       30.908 [kJ/mol]       0.01177236 [Eh]        2583.734 [cm^-1]
  Total ZPE, Electronic energy at 0 [K]                               -188.60426225 [Eh]

  Thermal Energy, E (includes ZPE)
    Electronic E            0.000 [kcal/mol]        0.000 [kJ/mol]       0.00000000 [Eh]
    Translational E         0.889 [kcal/mol]        3.718 [kJ/mol]       0.00141628 [Eh]
    Rotational E            0.592 [kcal/mol]        2.479 [kJ/mol]       0.00094418 [Eh]
    Vibrational E           7.542 [kcal/mol]       31.554 [kJ/mol]       0.01201828 [Eh]
  Correction E              9.023 [kcal/mol]       37.751 [kJ/mol]       0.01437874 [Eh]
  Total E, Electronic energy at  298.15 [K]                           -188.60165587 [Eh]

  Enthalpy, H_trans = E_trans + k_B * T
    Electronic H            0.000 [kcal/mol]        0.000 [kJ/mol]       0.00000000 [Eh]
    Translational H         1.481 [kcal/mol]        6.197 [kJ/mol]       0.00236046 [Eh]
    Rotational H            0.592 [kcal/mol]        2.479 [kJ/mol]       0.00094418 [Eh]
    Vibrational H           7.542 [kcal/mol]       31.554 [kJ/mol]       0.01201828 [Eh]
  Correction H              9.615 [kcal/mol]       40.230 [kJ/mol]       0.01532293 [Eh]
  Total H, Enthalpy at  298.15 [K]                                    -188.60071168 [Eh]

  Gibbs free energy, G = H - T * S
    Electronic G            0.000 [kcal/mol]        0.000 [kJ/mol]       0.00000000 [Eh]
    Translational G        -9.631 [kcal/mol]      -40.296 [kJ/mol]      -0.01534777 [Eh]
    Rotational G           -3.304 [kcal/mol]      -13.824 [kJ/mol]      -0.00526540 [Eh]
    Vibrational G           7.342 [kcal/mol]       30.720 [kJ/mol]       0.01170049 [Eh]
  Correction G             -5.593 [kcal/mol]      -23.400 [kJ/mol]      -0.00891269 [Eh]
  Total G, Free enthalpy at  298.15 [K]                               -188.62494730 [Eh]

*** Psi4 exiting successfully. Buy a developer a beer!
