                               Psi4 1.3.2 release

  ==> Input File <==

--------------------------------------------------------------------------
memory 144 GB

molecule {
0 1
C 0.0000000000 0.0000000000 0.0000000000
O 0.0000000000 0.0000000000 1.1314000000
}

set dynamic_level 1
set basis aug-cc-pV(T+d)Z

optimize("wB97M-V")
frequencies("wB97M-V")
--------------------------------------------------------------------------

    Molecular point group: c2v
  Charge       = 0
  Multiplicity = 1
  Basis Set: AUG-CC-PV(T+D)Z
    Blend: AUG-CC-PV(T+D)Z
  Basis Set: (AUG-CC-PV(T+D)Z AUX)
    Blend: AUG-CC-PVTZ-JKFIT
  @DF-RKS Final Energy:  -113.33458392515722
    Total Energy =                       -113.3345839251572187
    Molecular point group: c2v
  Basis Set: AUG-CC-PV(T+D)Z
    Blend: AUG-CC-PV(T+D)Z
  Basis Set: (AUG-CC-PV(T+D)Z AUX)
    Blend: AUG-CC-PVTZ-JKFIT
  @DF-RKS Final Energy:  -113.33455360538298
    Total Energy =                       -113.3345536053829505
  Basis Set: AUG-CC-PV(T+D)Z
    Blend: AUG-CC-PV(T+D)Z
  Basis Set: (AUG-CC-PV(T+D)Z AUX)
    Blend: AUG-CC-PVTZ-JKFIT
  @DF-RKS Final Energy:  -113.33460972134617
    Total Energy =                       -113.3346097213461832
  Basis Set: AUG-CC-PV(T+D)Z
    Blend: AUG-CC-PV(T+D)Z
  Basis Set: (AUG-CC-PV(T+D)Z AUX)
    Blend: AUG-CC-PVTZ-JKFIT
  @DF-RKS Final Energy:  -113.33466787052657
    Total Energy =                       -113.3346678705265731
  @DF-RKS Final Energy:  -113.33466133511654
    Total Energy =                       -113.3346613351165217
  @DF-RKS Final Energy:  -113.33466971630828
    Total Energy =                       -113.3346697163082837
  @DF-RKS Final Energy:  -113.33466974300566
    Total Energy =                       -113.3346697430056622
  @DF-RKS Final Energy:  -113.33466747271170
    Total Energy =                       -113.3346674727117147
  @DF-RKS Final Energy:  -113.33466729339530
    Total Energy =                       -113.3346672933952988
  **** Optimization is complete! (in 3 steps) ****
    Final optimized geometry and variables:
  @DF-RKS Final Energy:  -113.33466974300541
    Total Energy =                       -113.3346697430054064
  @DF-RKS Final Energy:  -113.33466747296163
    Total Energy =                       -113.3346674729616410
  Basis Set: AUG-CC-PV(T+D)Z
    Blend: AUG-CC-PV(T+D)Z
  Basis Set: (AUG-CC-PV(T+D)Z AUX)
    Blend: AUG-CC-PVTZ-JKFIT
  @DF-RKS Final Energy:  -113.33466729339517
    Total Energy =                       -113.3346672933951709
  Basis Set: AUG-CC-PV(T+D)Z
    Blend: AUG-CC-PV(T+D)Z
  Basis Set: (AUG-CC-PV(T+D)Z AUX)
    Blend: AUG-CC-PVTZ-JKFIT
  @DF-RKS Final Energy:  -113.33466974300541
    Total Energy =                       -113.3346697430054206
  Multiplicity = 1
  Basis Set: AUG-CC-PV(T+D)Z
    Blend: AUG-CC-PV(T+D)Z
  Basis Set: (AUG-CC-PV(T+D)Z AUX)
    Blend: AUG-CC-PVTZ-JKFIT
  @DF-RKS Final Energy:  -113.33466747296187
    Total Energy =                       -113.3346674729618684
    Molecular point group: c2v

    Geometry (in Angstrom), charge = 0, multiplicity = 1:

       Center              X                  Y                   Z               Mass
    ------------   -----------------  -----------------  -----------------  -----------------
         C            0.000000000000     0.000000000000    -0.642332272407    12.000000000000
         O            0.000000000000     0.000000000000     0.481902370360    15.994914619570

  Charge       = 0
  Multiplicity = 1
  Basis Set: AUG-CC-PV(T+D)Z
    Blend: AUG-CC-PV(T+D)Z
  Basis Set: (AUG-CC-PV(T+D)Z AUX)
    Blend: AUG-CC-PVTZ-JKFIT

    Orbital Energies [Eh]
    ---------------------

    Doubly Occupied:

       1A1   -19.442624     2A1   -10.462152     3A1    -1.298785
       4A1    -0.694615     1B2    -0.587662     1B1    -0.587662
       5A1    -0.487432

  @DF-RKS Final Energy:  -113.33466729339533

   => Energetics <=

    Nuclear Repulsion Energy =             22.5935984765987676
    One-Electron Energy =                -198.4276171345191244
    Two-Electron Energy =                  72.4897716907756546
    DFT Exchange-Correlation Energy =     -10.0495359464948866
    Empirical Dispersion Energy =           0.0000000000000000
    VV10 Nonlocal Energy =                  0.0591156202442499
    Total Energy =                       -113.3346672933953272

  Dipole Moment: [D]
     X:     0.0000      Y:     0.0000      Z:     0.0709     Total:     0.0709

  Vibration                       6
  Freq [cm^-1]                2233.5174
  Irrep                           A1
  Reduced mass [u]             13.4388
  Force const [mDyne/A]        39.4992

  ==> Thermochemistry Components <==

  Entropy, S
    Electronic S            0.000 [cal/(mol K)]        0.000 [J/(mol K)]       0.00000000 [mEh/K] (multiplicity = 1)
    Translational S        35.923 [cal/(mol K)]      150.302 [J/(mol K)]       0.05724692 [mEh/K] (mol. weight = 27.9949 [u], P = 101325.00 [Pa])
    Rotational S           11.268 [cal/(mol K)]       47.144 [J/(mol K)]       0.01795631 [mEh/K] (symmetry no. = 1)
    Vibrational S           0.000 [cal/(mol K)]        0.002 [J/(mol K)]       0.00000078 [mEh/K]
  Total S                  47.191 [cal/(mol K)]      197.448 [J/(mol K)]       0.07520401 [mEh/K]
  Correction S              0.000 [cal/(mol K)]        0.000 [J/(mol K)]       0.00000000 [mEh/K]

  Constant volume heat capacity, Cv
    Electronic Cv           0.000 [cal/(mol K)]        0.000 [J/(mol K)]       0.00000000 [mEh/K]
    Translational Cv        2.981 [cal/(mol K)]       12.472 [J/(mol K)]       0.00475022 [mEh/K]
    Rotational Cv           1.987 [cal/(mol K)]        8.314 [J/(mol K)]       0.00316681 [mEh/K]
    Vibrational Cv          0.005 [cal/(mol K)]        0.020 [J/(mol K)]       0.00000767 [mEh/K]
  Total Cv                  4.973 [cal/(mol K)]       20.806 [J/(mol K)]       0.00792470 [mEh/K]
  Correction Cv             0.000 [cal/(mol K)]        0.000 [J/(mol K)]       0.00000000 [mEh/K]

  Constant pressure heat capacity, Cp
    Electronic Cp           0.000 [cal/(mol K)]        0.000 [J/(mol K)]       0.00000000 [mEh/K]
    Translational Cp        4.968 [cal/(mol K)]       20.786 [J/(mol K)]       0.00791703 [mEh/K]
    Rotational Cp           1.987 [cal/(mol K)]        8.314 [J/(mol K)]       0.00316681 [mEh/K]
    Vibrational Cp          0.005 [cal/(mol K)]        0.020 [J/(mol K)]       0.00000767 [mEh/K]
  Total Cp                  6.960 [cal/(mol K)]       29.121 [J/(mol K)]       0.01109151 [mEh/K]
  Correction Cp             0.000 [cal/(mol K)]        0.000 [J/(mol K)]       0.00000000 [mEh/K]

  ==> Thermochemistry Energy Analysis <==

  Raw electronic energy, E0
  Total E0, Electronic energy at well bottom at 0 [K]                 -113.33466974 [Eh]

  Zero-point energy, ZPE_vib = Sum_i nu_i / 2
    Electronic ZPE          0.000 [kcal/mol]        0.000 [kJ/mol]       0.00000000 [Eh]
    Translational ZPE       0.000 [kcal/mol]        0.000 [kJ/mol]       0.00000000 [Eh]
    Rotational ZPE          0.000 [kcal/mol]        0.000 [kJ/mol]       0.00000000 [Eh]
    Vibrational ZPE         3.193 [kcal/mol]       13.359 [kJ/mol]       0.00508833 [Eh]        1116.759 [cm^-1]
  Correction ZPE            3.193 [kcal/mol]       13.359 [kJ/mol]       0.00508833 [Eh]        1116.759 [cm^-1]
  Total ZPE, Electronic energy at 0 [K]                               -113.32958142 [Eh]

  Thermal Energy, E (includes ZPE)
    Electronic E            0.000 [kcal/mol]        0.000 [kJ/mol]       0.00000000 [Eh]
    Translational E         0.889 [kcal/mol]        3.718 [kJ/mol]       0.00141628 [Eh]
    Rotational E            0.592 [kcal/mol]        2.479 [kJ/mol]       0.00094418 [Eh]
    Vibrational E           3.193 [kcal/mol]       13.360 [kJ/mol]       0.00508854 [Eh]
  Correction E              4.674 [kcal/mol]       19.557 [kJ/mol]       0.00744900 [Eh]
  Total E, Electronic energy at  298.15 [K]                           -113.32722074 [Eh]

  Enthalpy, H_trans = E_trans + k_B * T
    Electronic H            0.000 [kcal/mol]        0.000 [kJ/mol]       0.00000000 [Eh]
    Translational H         1.481 [kcal/mol]        6.197 [kJ/mol]       0.00236046 [Eh]
    Rotational H            0.592 [kcal/mol]        2.479 [kJ/mol]       0.00094418 [Eh]
    Vibrational H           3.193 [kcal/mol]       13.360 [kJ/mol]       0.00508854 [Eh]
  Correction H              5.267 [kcal/mol]       22.036 [kJ/mol]       0.00839319 [Eh]
  Total H, Enthalpy at  298.15 [K]                                    -113.32627656 [Eh]

  Gibbs free energy, G = H - T * S
    Electronic G            0.000 [kcal/mol]        0.000 [kJ/mol]       0.00000000 [Eh]
    Translational G        -9.229 [kcal/mol]      -38.615 [kJ/mol]      -0.01470771 [Eh]
    Rotational G           -2.767 [kcal/mol]      -11.577 [kJ/mol]      -0.00440949 [Eh]
    Vibrational G           3.193 [kcal/mol]       13.359 [kJ/mol]       0.00508831 [Eh]
  Correction G             -8.803 [kcal/mol]      -36.833 [kJ/mol]      -0.01402889 [Eh]
  Total G, Free enthalpy at  298.15 [K]                               -113.34869863 [Eh]

*** Psi4 exiting successfully. Buy a developer a beer!
