                               Psi4 1.3.2 release

  ==> Input File <==

--------------------------------------------------------------------------
memory 144 GB

molecule {
0 1
C 0.0000000000 0.0000000000 0.0000000000
S 0.0000000000 0.0000000000 1.5576337400
S 0.0000000000 0.0000000000 -1.5576337400
}

set dynamic_level 1
set basis aug-cc-pV(T+d)Z

optimize("wB97M-V")
frequencies("wB97M-V")
--------------------------------------------------------------------------

    Molecular point group: d2h
  Charge       = 0
  Multiplicity = 1
  Basis Set: AUG-CC-PV(T+D)Z
    Blend: AUG-CC-PV(T+D)Z
  Basis Set: (AUG-CC-PV(T+D)Z AUX)
    Blend: AUG-CC-PVTZ-JKFIT
  @DF-RKS Final Energy:  -834.48924618710839
    Total Energy =                       -834.4892461871086198
    Molecular point group: d2h
  Basis Set: AUG-CC-PV(T+D)Z
    Blend: AUG-CC-PV(T+D)Z
  Basis Set: (AUG-CC-PV(T+D)Z AUX)
    Blend: AUG-CC-PVTZ-JKFIT
  @DF-RKS Final Energy:  -834.48925880312208
    Total Energy =                       -834.4892588031221976
  Basis Set: AUG-CC-PV(T+D)Z
    Blend: AUG-CC-PV(T+D)Z
  Basis Set: (AUG-CC-PV(T+D)Z AUX)
    Blend: AUG-CC-PVTZ-JKFIT
  @DF-RKS Final Energy:  -834.48923313832279
    Total Energy =                       -834.4892331383227884
  Basis Set: AUG-CC-PV(T+D)Z
    Blend: AUG-CC-PV(T+D)Z
  Basis Set: (AUG-CC-PV(T+D)Z AUX)
    Blend: AUG-CC-PVTZ-JKFIT
  @DF-RKS Final Energy:  -834.48943274102908
    Total Energy =                       -834.4894327410290771
  @DF-RKS Final Energy:  -834.48943331806902
    Total Energy =                       -834.4894333180690182
  @DF-RKS Final Energy:  -834.48943171591827
    Total Energy =                       -834.4894317159181583
  @DF-RKS Final Energy:  -834.48943345198404
    Total Energy =                       -834.4894334519841550
  @DF-RKS Final Energy:  -834.48943320461899
    Total Energy =                       -834.4894332046189902
  @DF-RKS Final Energy:  -834.48943324137349
    Total Energy =                       -834.4894332413733764
  **** Optimization is complete! (in 3 steps) ****
    Final optimized geometry and variables:
  @DF-RKS Final Energy:  -834.48943345198506
    Total Energy =                       -834.4894334519850645
  @DF-RKS Final Energy:  -834.48943320461944
    Total Energy =                       -834.4894332046195586
  @DF-RKS Final Energy:  -834.48943324137326
    Total Energy =                       -834.4894332413731490
  @DF-RKS Final Energy:  -834.48943345198381
    Total Energy =                       -834.4894334519838139
  @DF-RKS Final Energy:  -834.48943320461944
    Total Energy =                       -834.4894332046194450
  Basis Set: AUG-CC-PV(T+D)Z
    Blend: AUG-CC-PV(T+D)Z
  Basis Set: (AUG-CC-PV(T+D)Z AUX)
    Blend: AUG-CC-PVTZ-JKFIT
  @DF-RKS Final Energy:  -834.48943324137292
    Total Energy =                       -834.4894332413726943
  Basis Set: AUG-CC-PV(T+D)Z
    Blend: AUG-CC-PV(T+D)Z
  Basis Set: (AUG-CC-PV(T+D)Z AUX)
    Blend: AUG-CC-PVTZ-JKFIT
  @DF-RKS Final Energy:  -834.48943228312339
    Total Energy =                       -834.4894322831233922
  Multiplicity = 1
  Basis Set: AUG-CC-PV(T+D)Z
    Blend: AUG-CC-PV(T+D)Z
  Basis Set: (AUG-CC-PV(T+D)Z AUX)
    Blend: AUG-CC-PVTZ-JKFIT
  @DF-RKS Final Energy:  -834.48943336776813
    Total Energy =                       -834.4894333677681288
    Molecular point group: c2v

    Geometry (in Angstrom), charge = 0, multiplicity = 1:

       Center              X                  Y                   Z               Mass
    ------------   -----------------  -----------------  -----------------  -----------------
         C           -0.000700864006     0.000000000000     0.000000000000    12.000000000000
         S            0.000131526794     0.000000000000     1.548045352172    31.972071174400
         S            0.000131526794     0.000000000000    -1.548045352172    31.972071174400

  Charge       = 0
  Multiplicity = 1
  Basis Set: AUG-CC-PV(T+D)Z
    Blend: AUG-CC-PV(T+D)Z
  Basis Set: (AUG-CC-PV(T+D)Z AUX)
    Blend: AUG-CC-PVTZ-JKFIT

    Orbital Energies [Eh]
    ---------------------

    Doubly Occupied:

       1B2   -89.235216     1A1   -89.235216     2A1   -10.479454
       2B2    -8.150891     3A1    -8.150872     3B2    -6.059822
       4A1    -6.059822     1A2    -6.055984     4B2    -6.055984
       1B1    -6.055982     5A1    -6.055982     6A1    -0.986369
       5B2    -0.891087     7A1    -0.615809     6B2    -0.531752
       8A1    -0.497695     2B1    -0.497695     2A2    -0.358663
       7B2    -0.358663

  @DF-RKS Final Energy:  -834.48943337152571

   => Energetics <=

    Nuclear Repulsion Energy =            109.3874236235845672
    One-Electron Energy =               -1367.8960908993713019
    Two-Electron Energy =                 467.2994903235538118
    DFT Exchange-Correlation Energy =     -43.4372544715926097
    Empirical Dispersion Energy =           0.0000000000000000
    VV10 Nonlocal Energy =                  0.1569980522999408
    Total Energy =                       -834.4894333715257062

  Dipole Moment: [D]
     X:     0.0008      Y:     0.0000      Z:     0.0000     Total:     0.0008

  Vibration                       6                   7                   8
  Freq [cm^-1]                 412.4147            421.9352            695.7532
  Irrep                          B3u                 B2u                  Ag
  Reduced mass [u]             13.3142             13.3142             31.9721
  Force const [mDyne/A]         1.3342              1.3965              9.1187

  Vibration                       9
  Freq [cm^-1]                1571.9206
  Irrep                          B1u
  Reduced mass [u]             13.3142
  Force const [mDyne/A]        19.3832

  ==> Thermochemistry Components <==

  Entropy, S
    Electronic S            0.000 [cal/(mol K)]        0.000 [J/(mol K)]       0.00000000 [mEh/K] (multiplicity = 1)
    Translational S        38.898 [cal/(mol K)]      162.748 [J/(mol K)]       0.06198752 [mEh/K] (mol. weight = 75.9441 [u], P = 101325.00 [Pa])
    Rotational S           15.595 [cal/(mol K)]       65.251 [J/(mol K)]       0.02485265 [mEh/K] (symmetry no. = 2)
    Vibrational S           2.123 [cal/(mol K)]        8.884 [J/(mol K)]       0.00338379 [mEh/K]
  Total S                  56.616 [cal/(mol K)]      236.883 [J/(mol K)]       0.09022396 [mEh/K]
  Correction S              0.000 [cal/(mol K)]        0.000 [J/(mol K)]       0.00000000 [mEh/K]

  Constant volume heat capacity, Cv
    Electronic Cv           0.000 [cal/(mol K)]        0.000 [J/(mol K)]       0.00000000 [mEh/K]
    Translational Cv        2.981 [cal/(mol K)]       12.472 [J/(mol K)]       0.00475022 [mEh/K]
    Rotational Cv           1.987 [cal/(mol K)]        8.314 [J/(mol K)]       0.00316681 [mEh/K]
    Vibrational Cv          3.761 [cal/(mol K)]       15.737 [J/(mol K)]       0.00599404 [mEh/K]
  Total Cv                  8.729 [cal/(mol K)]       36.523 [J/(mol K)]       0.01391106 [mEh/K]
  Correction Cv             0.000 [cal/(mol K)]        0.000 [J/(mol K)]       0.00000000 [mEh/K]

  Constant pressure heat capacity, Cp
    Electronic Cp           0.000 [cal/(mol K)]        0.000 [J/(mol K)]       0.00000000 [mEh/K]
    Translational Cp        4.968 [cal/(mol K)]       20.786 [J/(mol K)]       0.00791703 [mEh/K]
    Rotational Cp           1.987 [cal/(mol K)]        8.314 [J/(mol K)]       0.00316681 [mEh/K]
    Vibrational Cp          3.761 [cal/(mol K)]       15.737 [J/(mol K)]       0.00599404 [mEh/K]
  Total Cp                 10.717 [cal/(mol K)]       44.838 [J/(mol K)]       0.01707787 [mEh/K]
  Correction Cp             0.000 [cal/(mol K)]        0.000 [J/(mol K)]       0.00000000 [mEh/K]

  ==> Thermochemistry Energy Analysis <==

  Raw electronic energy, E0
  Total E0, Electronic energy at well bottom at 0 [K]                 -834.48943345 [Eh]

  Zero-point energy, ZPE_vib = Sum_i nu_i / 2
    Electronic ZPE          0.000 [kcal/mol]        0.000 [kJ/mol]       0.00000000 [Eh]
    Translational ZPE       0.000 [kcal/mol]        0.000 [kJ/mol]       0.00000000 [Eh]
    Rotational ZPE          0.000 [kcal/mol]        0.000 [kJ/mol]       0.00000000 [Eh]
    Vibrational ZPE         4.435 [kcal/mol]       18.554 [kJ/mol]       0.00706693 [Eh]        1551.012 [cm^-1]
  Correction ZPE            4.435 [kcal/mol]       18.554 [kJ/mol]       0.00706693 [Eh]        1551.012 [cm^-1]
  Total ZPE, Electronic energy at 0 [K]                               -834.48236652 [Eh]

  Thermal Energy, E (includes ZPE)
    Electronic E            0.000 [kcal/mol]        0.000 [kJ/mol]       0.00000000 [Eh]
    Translational E         0.889 [kcal/mol]        3.718 [kJ/mol]       0.00141628 [Eh]
    Rotational E            0.592 [kcal/mol]        2.479 [kJ/mol]       0.00094418 [Eh]
    Vibrational E           4.876 [kcal/mol]       20.403 [kJ/mol]       0.00777104 [Eh]
  Correction E              6.358 [kcal/mol]       26.600 [kJ/mol]       0.01013150 [Eh]
  Total E, Electronic energy at  298.15 [K]                           -834.47930195 [Eh]

  Enthalpy, H_trans = E_trans + k_B * T
    Electronic H            0.000 [kcal/mol]        0.000 [kJ/mol]       0.00000000 [Eh]
    Translational H         1.481 [kcal/mol]        6.197 [kJ/mol]       0.00236046 [Eh]
    Rotational H            0.592 [kcal/mol]        2.479 [kJ/mol]       0.00094418 [Eh]
    Vibrational H           4.876 [kcal/mol]       20.403 [kJ/mol]       0.00777104 [Eh]
  Correction H              6.950 [kcal/mol]       29.079 [kJ/mol]       0.01107568 [Eh]
  Total H, Enthalpy at  298.15 [K]                                    -834.47835777 [Eh]

  Gibbs free energy, G = H - T * S
    Electronic G            0.000 [kcal/mol]        0.000 [kJ/mol]       0.00000000 [Eh]
    Translational G       -10.116 [kcal/mol]      -42.326 [kJ/mol]      -0.01612112 [Eh]
    Rotational G           -4.057 [kcal/mol]      -16.976 [kJ/mol]      -0.00646563 [Eh]
    Vibrational G           4.243 [kcal/mol]       17.754 [kJ/mol]       0.00676216 [Eh]
  Correction G             -9.930 [kcal/mol]      -41.547 [kJ/mol]      -0.01582459 [Eh]
  Total G, Free enthalpy at  298.15 [K]                               -834.50525804 [Eh]

*** Psi4 exiting successfully. Buy a developer a beer!
