                               Psi4 1.3.2 release

  ==> Input File <==

--------------------------------------------------------------------------
memory 144 GB

molecule {
0 1
C 0.0000000000 0.0000000000 0.0000000000
S 0.0000000000 0.0000000000 1.5415329200
}

set dynamic_level 1
set basis aug-cc-pV(T+d)Z

optimize("wB97M-V")
frequencies("wB97M-V")
--------------------------------------------------------------------------

    Molecular point group: c2v
  Charge       = 0
  Multiplicity = 1
  Basis Set: AUG-CC-PV(T+D)Z
    Blend: AUG-CC-PV(T+D)Z
  Basis Set: (AUG-CC-PV(T+D)Z AUX)
    Blend: AUG-CC-PVTZ-JKFIT
  @DF-RKS Final Energy:  -436.21752036351216
    Total Energy =                       -436.2175203635121647
    Molecular point group: c2v
  Basis Set: AUG-CC-PV(T+D)Z
    Blend: AUG-CC-PV(T+D)Z
  Basis Set: (AUG-CC-PV(T+D)Z AUX)
    Blend: AUG-CC-PVTZ-JKFIT
  @DF-RKS Final Energy:  -436.21748598918691
    Total Energy =                       -436.2174859891869119
  Basis Set: AUG-CC-PV(T+D)Z
    Blend: AUG-CC-PV(T+D)Z
  Basis Set: (AUG-CC-PV(T+D)Z AUX)
    Blend: AUG-CC-PVTZ-JKFIT
  @DF-RKS Final Energy:  -436.21755316327113
    Total Energy =                       -436.2175531632711909
  Basis Set: AUG-CC-PV(T+D)Z
    Blend: AUG-CC-PV(T+D)Z
  Basis Set: (AUG-CC-PV(T+D)Z AUX)
    Blend: AUG-CC-PVTZ-JKFIT
  @DF-RKS Final Energy:  -436.21786351587099
    Total Energy =                       -436.2178635158709881
  @DF-RKS Final Energy:  -436.21785892814665
    Total Energy =                       -436.2178589281466543
  @DF-RKS Final Energy:  -436.21786638749199
    Total Energy =                       -436.2178663874919380
  @DF-RKS Final Energy:  -436.21786755180267
    Total Energy =                       -436.2178675518026694
  @DF-RKS Final Energy:  -436.21786686901424
    Total Energy =                       -436.2178668690142445
  @DF-RKS Final Energy:  -436.21786650064519
    Total Energy =                       -436.2178665006451865
  **** Optimization is complete! (in 3 steps) ****
    Final optimized geometry and variables:
  @DF-RKS Final Energy:  -436.21786755184479
    Total Energy =                       -436.2178675518447903
  @DF-RKS Final Energy:  -436.21786687074297
    Total Energy =                       -436.2178668707429097
  Basis Set: AUG-CC-PV(T+D)Z
    Blend: AUG-CC-PV(T+D)Z
  Basis Set: (AUG-CC-PV(T+D)Z AUX)
    Blend: AUG-CC-PVTZ-JKFIT
  @DF-RKS Final Energy:  -436.21786650111005
    Total Energy =                       -436.2178665011100520
  Basis Set: AUG-CC-PV(T+D)Z
    Blend: AUG-CC-PV(T+D)Z
  Basis Set: (AUG-CC-PV(T+D)Z AUX)
    Blend: AUG-CC-PVTZ-JKFIT
  @DF-RKS Final Energy:  -436.21786755184496
    Total Energy =                       -436.2178675518449040
  Multiplicity = 1
  Basis Set: AUG-CC-PV(T+D)Z
    Blend: AUG-CC-PV(T+D)Z
  Basis Set: (AUG-CC-PV(T+D)Z AUX)
    Blend: AUG-CC-PVTZ-JKFIT
  @DF-RKS Final Energy:  -436.21786687074302
    Total Energy =                       -436.2178668707430234
    Molecular point group: c2v

    Geometry (in Angstrom), charge = 0, multiplicity = 1:

       Center              X                  Y                   Z               Mass
    ------------   -----------------  -----------------  -----------------  -----------------
         C            0.000000000000     0.000000000000    -1.106876814784    12.000000000000
         S            0.000000000000     0.000000000000     0.415441392738    31.972071174400

  Charge       = 0
  Multiplicity = 1
  Basis Set: AUG-CC-PV(T+D)Z
    Blend: AUG-CC-PV(T+D)Z
  Basis Set: (AUG-CC-PV(T+D)Z AUX)
    Blend: AUG-CC-PVTZ-JKFIT

    Orbital Energies [Eh]
    ---------------------

    Doubly Occupied:

       1A1   -89.252347     2A1   -10.445498     3A1    -8.171228
       1B2    -6.077631     1B1    -6.077631     4A1    -6.076812
       5A1    -0.960930     6A1    -0.630515     2B2    -0.453131
       2B1    -0.453131     7A1    -0.414107

  @DF-RKS Final Energy:  -436.21786650111056

   => Energetics <=

    Nuclear Repulsion Energy =             33.3708235067585974
    One-Electron Energy =                -666.3949480405437953
    Two-Electron Energy =                 220.2784824861518018
    DFT Exchange-Correlation Energy =     -23.5642554901292556
    Empirical Dispersion Energy =           0.0000000000000000
    VV10 Nonlocal Energy =                  0.0920310366520506
    Total Energy =                       -436.2178665011106204

  Dipole Moment: [D]
     X:     0.0000      Y:     0.0000      Z:     2.0004     Total:     2.0004

  Vibration                       6
  Freq [cm^-1]                1352.9686
  Irrep                           A1
  Reduced mass [u]             14.4661
  Force const [mDyne/A]        15.6019

  ==> Thermochemistry Components <==

  Entropy, S
    Electronic S            0.000 [cal/(mol K)]        0.000 [J/(mol K)]       0.00000000 [mEh/K] (multiplicity = 1)
    Translational S        37.269 [cal/(mol K)]      155.933 [J/(mol K)]       0.05939180 [mEh/K] (mol. weight = 43.9721 [u], P = 101325.00 [Pa])
    Rotational S           12.950 [cal/(mol K)]       54.184 [J/(mol K)]       0.02063766 [mEh/K] (symmetry no. = 1)
    Vibrational S           0.022 [cal/(mol K)]        0.092 [J/(mol K)]       0.00003487 [mEh/K]
  Total S                  50.241 [cal/(mol K)]      210.209 [J/(mol K)]       0.08006433 [mEh/K]
  Correction S              0.000 [cal/(mol K)]        0.000 [J/(mol K)]       0.00000000 [mEh/K]

  Constant volume heat capacity, Cv
    Electronic Cv           0.000 [cal/(mol K)]        0.000 [J/(mol K)]       0.00000000 [mEh/K]
    Translational Cv        2.981 [cal/(mol K)]       12.472 [J/(mol K)]       0.00475022 [mEh/K]
    Rotational Cv           1.987 [cal/(mol K)]        8.314 [J/(mol K)]       0.00316681 [mEh/K]
    Vibrational Cv          0.124 [cal/(mol K)]        0.519 [J/(mol K)]       0.00019773 [mEh/K]
  Total Cv                  5.092 [cal/(mol K)]       21.305 [J/(mol K)]       0.00811476 [mEh/K]
  Correction Cv             0.000 [cal/(mol K)]        0.000 [J/(mol K)]       0.00000000 [mEh/K]

  Constant pressure heat capacity, Cp
    Electronic Cp           0.000 [cal/(mol K)]        0.000 [J/(mol K)]       0.00000000 [mEh/K]
    Translational Cp        4.968 [cal/(mol K)]       20.786 [J/(mol K)]       0.00791703 [mEh/K]
    Rotational Cp           1.987 [cal/(mol K)]        8.314 [J/(mol K)]       0.00316681 [mEh/K]
    Vibrational Cp          0.124 [cal/(mol K)]        0.519 [J/(mol K)]       0.00019773 [mEh/K]
  Total Cp                  7.079 [cal/(mol K)]       29.620 [J/(mol K)]       0.01128157 [mEh/K]
  Correction Cp             0.000 [cal/(mol K)]        0.000 [J/(mol K)]       0.00000000 [mEh/K]

  ==> Thermochemistry Energy Analysis <==

  Raw electronic energy, E0
  Total E0, Electronic energy at well bottom at 0 [K]                 -436.21786755 [Eh]

  Zero-point energy, ZPE_vib = Sum_i nu_i / 2
    Electronic ZPE          0.000 [kcal/mol]        0.000 [kJ/mol]       0.00000000 [Eh]
    Translational ZPE       0.000 [kcal/mol]        0.000 [kJ/mol]       0.00000000 [Eh]
    Rotational ZPE          0.000 [kcal/mol]        0.000 [kJ/mol]       0.00000000 [Eh]
    Vibrational ZPE         1.934 [kcal/mol]        8.093 [kJ/mol]       0.00308229 [Eh]         676.484 [cm^-1]
  Correction ZPE            1.934 [kcal/mol]        8.093 [kJ/mol]       0.00308229 [Eh]         676.484 [cm^-1]
  Total ZPE, Electronic energy at 0 [K]                               -436.21478526 [Eh]

  Thermal Energy, E (includes ZPE)
    Electronic E            0.000 [kcal/mol]        0.000 [kJ/mol]       0.00000000 [Eh]
    Translational E         0.889 [kcal/mol]        3.718 [kJ/mol]       0.00141628 [Eh]
    Rotational E            0.592 [kcal/mol]        2.479 [kJ/mol]       0.00094418 [Eh]
    Vibrational E           1.940 [kcal/mol]        8.116 [kJ/mol]       0.00309131 [Eh]
  Correction E              3.421 [kcal/mol]       14.314 [kJ/mol]       0.00545177 [Eh]
  Total E, Electronic energy at  298.15 [K]                           -436.21241578 [Eh]

  Enthalpy, H_trans = E_trans + k_B * T
    Electronic H            0.000 [kcal/mol]        0.000 [kJ/mol]       0.00000000 [Eh]
    Translational H         1.481 [kcal/mol]        6.197 [kJ/mol]       0.00236046 [Eh]
    Rotational H            0.592 [kcal/mol]        2.479 [kJ/mol]       0.00094418 [Eh]
    Vibrational H           1.940 [kcal/mol]        8.116 [kJ/mol]       0.00309131 [Eh]
  Correction H              4.014 [kcal/mol]       16.793 [kJ/mol]       0.00639595 [Eh]
  Total H, Enthalpy at  298.15 [K]                                    -436.21147160 [Eh]

  Gibbs free energy, G = H - T * S
    Electronic G            0.000 [kcal/mol]        0.000 [kJ/mol]       0.00000000 [Eh]
    Translational G        -9.631 [kcal/mol]      -40.294 [kJ/mol]      -0.01534720 [Eh]
    Rotational G           -3.269 [kcal/mol]      -13.676 [kJ/mol]      -0.00520893 [Eh]
    Vibrational G           1.933 [kcal/mol]        8.089 [kJ/mol]       0.00308091 [Eh]
  Correction G            -10.966 [kcal/mol]      -45.881 [kJ/mol]      -0.01747523 [Eh]
  Total G, Free enthalpy at  298.15 [K]                               -436.23534278 [Eh]

*** Psi4 exiting successfully. Buy a developer a beer!
