                               Psi4 1.3.2 release

  ==> Input File <==

--------------------------------------------------------------------------
memory 144 GB

molecule {
0 1
F 0.0000000000 0.0000000000 0.0000000000
F 0.0000000000 0.0000000000 1.4129000000
}

set dynamic_level 1
set basis aug-cc-pV(T+d)Z

optimize("wB97M-V")
frequencies("wB97M-V")
--------------------------------------------------------------------------

    Molecular point group: d2h
  Charge       = 0
  Multiplicity = 1
  Basis Set: AUG-CC-PV(T+D)Z
    Blend: AUG-CC-PV(T+D)Z
  Basis Set: (AUG-CC-PV(T+D)Z AUX)
    Blend: AUG-CC-PVTZ-JKFIT
  @DF-RKS Final Energy:  -199.54168333397851
    Total Energy =                       -199.5416833339785114
    Molecular point group: d2h
  Basis Set: AUG-CC-PV(T+D)Z
    Blend: AUG-CC-PV(T+D)Z
  Basis Set: (AUG-CC-PV(T+D)Z AUX)
    Blend: AUG-CC-PVTZ-JKFIT
  @DF-RKS Final Energy:  -199.54164486300871
    Total Energy =                       -199.5416448630087132
  Basis Set: AUG-CC-PV(T+D)Z
    Blend: AUG-CC-PV(T+D)Z
  Basis Set: (AUG-CC-PV(T+D)Z AUX)
    Blend: AUG-CC-PVTZ-JKFIT
  @DF-RKS Final Energy:  -199.54172084683785
    Total Energy =                       -199.5417208468378476
  Basis Set: AUG-CC-PV(T+D)Z
    Blend: AUG-CC-PV(T+D)Z
  Basis Set: (AUG-CC-PV(T+D)Z AUX)
    Blend: AUG-CC-PVTZ-JKFIT
  @DF-RKS Final Energy:  -199.54238346943316
    Total Energy =                       -199.5423834694331333
  @DF-RKS Final Energy:  -199.54237953224339
    Total Energy =                       -199.5423795322433875
  @DF-RKS Final Energy:  -199.54238626574568
    Total Energy =                       -199.5423862657457335
  @DF-RKS Final Energy:  -199.54238836920285
    Total Energy =                       -199.5423883692028824
  @DF-RKS Final Energy:  -199.54238811903315
    Total Energy =                       -199.5423881190331485
  @DF-RKS Final Energy:  -199.54238745898442
    Total Energy =                       -199.5423874589844502
  **** Optimization is complete! (in 3 steps) ****
    Final optimized geometry and variables:
  @DF-RKS Final Energy:  -199.54238836920257
    Total Energy =                       -199.5423883692025697
  @DF-RKS Final Energy:  -199.54238811903323
    Total Energy =                       -199.5423881190332622
  Basis Set: AUG-CC-PV(T+D)Z
    Blend: AUG-CC-PV(T+D)Z
  Basis Set: (AUG-CC-PV(T+D)Z AUX)
    Blend: AUG-CC-PVTZ-JKFIT
  @DF-RKS Final Energy:  -199.54238745898422
    Total Energy =                       -199.5423874589842228
  Basis Set: AUG-CC-PV(T+D)Z
    Blend: AUG-CC-PV(T+D)Z
  Basis Set: (AUG-CC-PV(T+D)Z AUX)
    Blend: AUG-CC-PVTZ-JKFIT
  @DF-RKS Final Energy:  -199.54238836920271
    Total Energy =                       -199.5423883692027118
  Multiplicity = 1
  Basis Set: AUG-CC-PV(T+D)Z
    Blend: AUG-CC-PV(T+D)Z
  Basis Set: (AUG-CC-PV(T+D)Z AUX)
    Blend: AUG-CC-PVTZ-JKFIT
  @DF-RKS Final Energy:  -199.54238811903312
    Total Energy =                       -199.5423881190331201
    Molecular point group: d2h

    Geometry (in Angstrom), charge = 0, multiplicity = 1:

       Center              X                  Y                   Z               Mass
    ------------   -----------------  -----------------  -----------------  -----------------
         F            0.000000000000     0.000000000000    -0.690453314927    18.998403162730
         F            0.000000000000     0.000000000000     0.690453314927    18.998403162730

  Charge       = 0
  Multiplicity = 1
  Basis Set: AUG-CC-PV(T+D)Z
    Blend: AUG-CC-PV(T+D)Z
  Basis Set: (AUG-CC-PV(T+D)Z AUX)
    Blend: AUG-CC-PVTZ-JKFIT

    Orbital Energies [Eh]
    ---------------------

    Doubly Occupied:

       1Ag   -25.018772     1B1u  -25.018765     2Ag    -1.502695
       2B1u   -1.241990     3Ag    -0.716683     1B3u   -0.667289
       1B2u   -0.667289     1B2g   -0.524821     1B3g   -0.524821

  @DF-RKS Final Energy:  -199.54238745898456

   => Energetics <=

    Nuclear Repulsion Energy =             31.0400088880764855
    One-Electron Energy =                -339.7809694187980085
    Two-Electron Energy =                 124.4500517882846822
    DFT Exchange-Correlation Energy =     -15.3284903714101954
    Empirical Dispersion Energy =           0.0000000000000000
    VV10 Nonlocal Energy =                  0.0770116548624707
    Total Energy =                       -199.5423874589845639

  Dipole Moment: [D]
     X:     0.0000      Y:     0.0000      Z:    -0.0000     Total:     0.0000

  Vibration                       6
  Freq [cm^-1]                1107.4799
  Irrep                           Ag
  Reduced mass [u]             18.9984
  Force const [mDyne/A]        13.7290

  ==> Thermochemistry Components <==

  Entropy, S
    Electronic S            0.000 [cal/(mol K)]        0.000 [J/(mol K)]       0.00000000 [mEh/K] (multiplicity = 1)
    Translational S        36.834 [cal/(mol K)]      154.112 [J/(mol K)]       0.05869802 [mEh/K] (mol. weight = 37.9968 [u], P = 101325.00 [Pa])
    Rotational S           11.354 [cal/(mol K)]       47.507 [J/(mol K)]       0.01809447 [mEh/K] (symmetry no. = 2)
    Vibrational S           0.060 [cal/(mol K)]        0.253 [J/(mol K)]       0.00009636 [mEh/K]
  Total S                  48.248 [cal/(mol K)]      201.872 [J/(mol K)]       0.07688885 [mEh/K]
  Correction S              0.000 [cal/(mol K)]        0.000 [J/(mol K)]       0.00000000 [mEh/K]

  Constant volume heat capacity, Cv
    Electronic Cv           0.000 [cal/(mol K)]        0.000 [J/(mol K)]       0.00000000 [mEh/K]
    Translational Cv        2.981 [cal/(mol K)]       12.472 [J/(mol K)]       0.00475022 [mEh/K]
    Rotational Cv           1.987 [cal/(mol K)]        8.314 [J/(mol K)]       0.00316681 [mEh/K]
    Vibrational Cv          0.274 [cal/(mol K)]        1.145 [J/(mol K)]       0.00043606 [mEh/K]
  Total Cv                  5.242 [cal/(mol K)]       21.931 [J/(mol K)]       0.00835309 [mEh/K]
  Correction Cv             0.000 [cal/(mol K)]        0.000 [J/(mol K)]       0.00000000 [mEh/K]

  Constant pressure heat capacity, Cp
    Electronic Cp           0.000 [cal/(mol K)]        0.000 [J/(mol K)]       0.00000000 [mEh/K]
    Translational Cp        4.968 [cal/(mol K)]       20.786 [J/(mol K)]       0.00791703 [mEh/K]
    Rotational Cp           1.987 [cal/(mol K)]        8.314 [J/(mol K)]       0.00316681 [mEh/K]
    Vibrational Cp          0.274 [cal/(mol K)]        1.145 [J/(mol K)]       0.00043606 [mEh/K]
  Total Cp                  7.229 [cal/(mol K)]       30.245 [J/(mol K)]       0.01151990 [mEh/K]
  Correction Cp             0.000 [cal/(mol K)]        0.000 [J/(mol K)]       0.00000000 [mEh/K]

  ==> Thermochemistry Energy Analysis <==

  Raw electronic energy, E0
  Total E0, Electronic energy at well bottom at 0 [K]                 -199.54238837 [Eh]

  Zero-point energy, ZPE_vib = Sum_i nu_i / 2
    Electronic ZPE          0.000 [kcal/mol]        0.000 [kJ/mol]       0.00000000 [Eh]
    Translational ZPE       0.000 [kcal/mol]        0.000 [kJ/mol]       0.00000000 [Eh]
    Rotational ZPE          0.000 [kcal/mol]        0.000 [kJ/mol]       0.00000000 [Eh]
    Vibrational ZPE         1.583 [kcal/mol]        6.624 [kJ/mol]       0.00252302 [Eh]         553.740 [cm^-1]
  Correction ZPE            1.583 [kcal/mol]        6.624 [kJ/mol]       0.00252302 [Eh]         553.740 [cm^-1]
  Total ZPE, Electronic energy at 0 [K]                               -199.53986534 [Eh]

  Thermal Energy, E (includes ZPE)
    Electronic E            0.000 [kcal/mol]        0.000 [kJ/mol]       0.00000000 [Eh]
    Translational E         0.889 [kcal/mol]        3.718 [kJ/mol]       0.00141628 [Eh]
    Rotational E            0.592 [kcal/mol]        2.479 [kJ/mol]       0.00094418 [Eh]
    Vibrational E           1.598 [kcal/mol]        6.688 [kJ/mol]       0.00254724 [Eh]
  Correction E              3.080 [kcal/mol]       12.885 [kJ/mol]       0.00490770 [Eh]
  Total E, Electronic energy at  298.15 [K]                           -199.53748067 [Eh]

  Enthalpy, H_trans = E_trans + k_B * T
    Electronic H            0.000 [kcal/mol]        0.000 [kJ/mol]       0.00000000 [Eh]
    Translational H         1.481 [kcal/mol]        6.197 [kJ/mol]       0.00236046 [Eh]
    Rotational H            0.592 [kcal/mol]        2.479 [kJ/mol]       0.00094418 [Eh]
    Vibrational H           1.598 [kcal/mol]        6.688 [kJ/mol]       0.00254724 [Eh]
  Correction H              3.672 [kcal/mol]       15.364 [kJ/mol]       0.00585188 [Eh]
  Total H, Enthalpy at  298.15 [K]                                    -199.53653649 [Eh]

  Gibbs free energy, G = H - T * S
    Electronic G            0.000 [kcal/mol]        0.000 [kJ/mol]       0.00000000 [Eh]
    Translational G        -9.501 [kcal/mol]      -39.751 [kJ/mol]      -0.01514035 [Eh]
    Rotational G           -2.793 [kcal/mol]      -11.685 [kJ/mol]      -0.00445068 [Eh]
    Vibrational G           1.580 [kcal/mol]        6.612 [kJ/mol]       0.00251851 [Eh]
  Correction G            -10.713 [kcal/mol]      -44.824 [kJ/mol]      -0.01707253 [Eh]
  Total G, Free enthalpy at  298.15 [K]                               -199.55946090 [Eh]

*** Psi4 exiting successfully. Buy a developer a beer!
