                               Psi4 1.3.2 release

  ==> Input File <==

--------------------------------------------------------------------------
memory 144 GB

molecule {
0 1
O 0.0000000000 0.0000000000 0.0000000000
C 0.0000000000 0.0000000000 1.2066000000
H 0.9369544103 0.0000000000 1.7870836544
H -0.9369544103 0.0000000000 1.7870836544
}

set dynamic_level 1
set basis aug-cc-pV(T+d)Z

optimize("wB97M-V")
frequencies("wB97M-V")
--------------------------------------------------------------------------

    Molecular point group: c2v
  Charge       = 0
  Multiplicity = 1
  Basis Set: AUG-CC-PV(T+D)Z
    Blend: AUG-CC-PV(T+D)Z
  Basis Set: (AUG-CC-PV(T+D)Z AUX)
    Blend: AUG-CC-PVTZ-JKFIT
  @DF-RKS Final Energy:  -114.50527914220226
    Total Energy =                       -114.5052791422022551
    Molecular point group: c2v
  Basis Set: AUG-CC-PV(T+D)Z
    Blend: AUG-CC-PV(T+D)Z
  Basis Set: (AUG-CC-PV(T+D)Z AUX)
    Blend: AUG-CC-PVTZ-JKFIT
  @DF-RKS Final Energy:  -114.50525520599493
    Total Energy =                       -114.5052552059949278
  Basis Set: AUG-CC-PV(T+D)Z
    Blend: AUG-CC-PV(T+D)Z
  Basis Set: (AUG-CC-PV(T+D)Z AUX)
    Blend: AUG-CC-PVTZ-JKFIT
  @DF-RKS Final Energy:  -114.50530019321009
    Total Energy =                       -114.5053001932100756
  Basis Set: AUG-CC-PV(T+D)Z
    Blend: AUG-CC-PV(T+D)Z
  Basis Set: (AUG-CC-PV(T+D)Z AUX)
    Blend: AUG-CC-PVTZ-JKFIT
  @DF-RKS Final Energy:  -114.50528199114569
    Total Energy =                       -114.5052819911456936
  @DF-RKS Final Energy:  -114.50527235706987
    Total Energy =                       -114.5052723570698703
  @DF-RKS Final Energy:  -114.50527312723931
    Total Energy =                       -114.5052731272393061
  @DF-RKS Final Energy:  -114.50527859801164
    Total Energy =                       -114.5052785980116283
  @DF-RKS Final Energy:  -114.50536414143367
    Total Energy =                       -114.5053641414336880
  @DF-RKS Final Energy:  -114.50535988929448
    Total Energy =                       -114.5053598892944819
  @DF-RKS Final Energy:  -114.50536538901912
    Total Energy =                       -114.5053653890191185
  @DF-RKS Final Energy:  -114.50536619308629
    Total Energy =                       -114.5053661930862745
  @DF-RKS Final Energy:  -114.50535815492360
    Total Energy =                       -114.5053581549235844
  @DF-RKS Final Energy:  -114.50535929267090
    Total Energy =                       -114.5053592926709030
  @DF-RKS Final Energy:  -114.50536245352367
    Total Energy =                       -114.5053624535236736
  @DF-RKS Final Energy:  -114.50536708152667
    Total Energy =                       -114.5053670815266713
  @DF-RKS Final Energy:  -114.50536553420737
    Total Energy =                       -114.5053655342073853
  @DF-RKS Final Energy:  -114.50536560775146
    Total Energy =                       -114.5053656077514574
  @DF-RKS Final Energy:  -114.50536608399823
    Total Energy =                       -114.5053660839982257
  @DF-RKS Final Energy:  -114.50536414388635
    Total Energy =                       -114.5053641438863394
  @DF-RKS Final Energy:  -114.50536379320056
    Total Energy =                       -114.5053637932005586
  **** Optimization is complete! (in 3 steps) ****
    Final optimized geometry and variables:
  @DF-RKS Final Energy:  -114.50536379320052
    Total Energy =                       -114.5053637932005159
  @DF-RKS Final Energy:  -114.50536385866181
    Total Energy =                       -114.5053638586618092
  @DF-RKS Final Energy:  -114.50536708152680
    Total Energy =                       -114.5053670815267850
  @DF-RKS Final Energy:  -114.50536553420736
    Total Energy =                       -114.5053655342073569
  @DF-RKS Final Energy:  -114.50536560775157
    Total Energy =                       -114.5053656077515569
  @DF-RKS Final Energy:  -114.50536608399835
    Total Energy =                       -114.5053660839983536
  @DF-RKS Final Energy:  -114.50536414388679
    Total Energy =                       -114.5053641438867942
  @DF-RKS Final Energy:  -114.50536379320069
    Total Energy =                       -114.5053637932006865
  @DF-RKS Final Energy:  -114.50536385866214
    Total Energy =                       -114.5053638586621219
  @DF-RKS Final Energy:  -114.50536297989655
    Total Energy =                       -114.5053629798965602
  @DF-RKS Final Energy:  -114.50536484250252
    Total Energy =                       -114.5053648425025159
  @DF-RKS Final Energy:  -114.50536261382807
    Total Energy =                       -114.5053626138280691
  @DF-RKS Final Energy:  -114.50536246944642
    Total Energy =                       -114.5053624694464247
  @DF-RKS Final Energy:  -114.50536345052529
    Total Energy =                       -114.5053634505253086
  @DF-RKS Final Energy:  -114.50536533820171
    Total Energy =                       -114.5053653382017131
  @DF-RKS Final Energy:  -114.50536632982870
    Total Energy =                       -114.5053663298287034
  Basis Set: AUG-CC-PV(T+D)Z
    Blend: AUG-CC-PV(T+D)Z
  Basis Set: (AUG-CC-PV(T+D)Z AUX)
    Blend: AUG-CC-PVTZ-JKFIT
  @DF-RKS Final Energy:  -114.50536287091700
    Total Energy =                       -114.5053628709169971
  Basis Set: AUG-CC-PV(T+D)Z
    Blend: AUG-CC-PV(T+D)Z
  Basis Set: (AUG-CC-PV(T+D)Z AUX)
    Blend: AUG-CC-PVTZ-JKFIT
  @DF-RKS Final Energy:  -114.50536214884899
    Total Energy =                       -114.5053621488489881
  Multiplicity = 1
  Basis Set: AUG-CC-PV(T+D)Z
    Blend: AUG-CC-PV(T+D)Z
  Basis Set: (AUG-CC-PV(T+D)Z AUX)
    Blend: AUG-CC-PVTZ-JKFIT
  @DF-RKS Final Energy:  -114.50536214918336
    Total Energy =                       -114.5053621491833553
    Molecular point group: cs

    Geometry (in Angstrom), charge = 0, multiplicity = 1:

       Center              X                  Y                   Z               Mass
    ------------   -----------------  -----------------  -----------------  -----------------
         O            0.000000000000    -0.000096086259    -0.599031169668    15.994914619570
         C            0.000000000000     0.000392693632     0.600155517070    12.000000000000
         H            0.938242829574    -0.001575388570     1.180555221572     1.007825032230
         H           -0.938242829574    -0.001575388570     1.180555221572     1.007825032230

  Charge       = 0
  Multiplicity = 1
  Basis Set: AUG-CC-PV(T+D)Z
    Blend: AUG-CC-PV(T+D)Z
  Basis Set: (AUG-CC-PV(T+D)Z AUX)
    Blend: AUG-CC-PVTZ-JKFIT

    Orbital Energies [Eh]
    ---------------------

    Doubly Occupied:

       1Ap   -19.357046     2Ap   -10.445075     3Ap    -1.198232
       4Ap    -0.755753     1App   -0.612087     5Ap    -0.567683
       6Ap    -0.512843     2App   -0.377928

  @DF-RKS Final Energy:  -114.50536640210240

   => Energetics <=

    Nuclear Repulsion Energy =             31.4279115866182615
    One-Electron Energy =                -217.6722072868855662
    Two-Electron Energy =                  82.1515225115568910
    DFT Exchange-Correlation Energy =     -10.4790821849979814
    Empirical Dispersion Energy =           0.0000000000000000
    VV10 Nonlocal Energy =                  0.0664889716060185
    Total Energy =                       -114.5053664021023820

  Dipole Moment: [D]
     X:     0.0000      Y:    -0.0010      Z:     2.4118     Total:     2.4118

  Vibration                       7                   8                   9
  Freq [cm^-1]                1198.4498           1260.5279           1525.5682
  Irrep                           B2                  B1                  A1
  Reduced mass [u]              1.3654              1.3427              1.0928
  Force const [mDyne/A]         1.1555              1.2570              1.4986

  Vibration                       10                  11                  12
  Freq [cm^-1]                1838.4937           2920.1833           2983.4934
  Irrep                           A1                  A1                  B1
  Reduced mass [u]              8.0670              1.0438              1.1203
  Force const [mDyne/A]        16.0652              5.2443              5.8753

  ==> Thermochemistry Components <==

  Entropy, S
    Electronic S            0.000 [cal/(mol K)]        0.000 [J/(mol K)]       0.00000000 [mEh/K] (multiplicity = 1)
    Translational S        36.130 [cal/(mol K)]      151.169 [J/(mol K)]       0.05757719 [mEh/K] (mol. weight = 30.0106 [u], P = 101325.00 [Pa])
    Rotational S           15.995 [cal/(mol K)]       66.923 [J/(mol K)]       0.02548965 [mEh/K] (symmetry no. = 2)
    Vibrational S           0.087 [cal/(mol K)]        0.365 [J/(mol K)]       0.00013888 [mEh/K]
  Total S                  52.212 [cal/(mol K)]      218.457 [J/(mol K)]       0.08320571 [mEh/K]
  Correction S              0.000 [cal/(mol K)]        0.000 [J/(mol K)]       0.00000000 [mEh/K]

  Constant volume heat capacity, Cv
    Electronic Cv           0.000 [cal/(mol K)]        0.000 [J/(mol K)]       0.00000000 [mEh/K]
    Translational Cv        2.981 [cal/(mol K)]       12.472 [J/(mol K)]       0.00475022 [mEh/K]
    Rotational Cv           2.981 [cal/(mol K)]       12.472 [J/(mol K)]       0.00475022 [mEh/K]
    Vibrational Cv          0.465 [cal/(mol K)]        1.947 [J/(mol K)]       0.00074159 [mEh/K]
  Total Cv                  6.427 [cal/(mol K)]       26.890 [J/(mol K)]       0.01024202 [mEh/K]
  Correction Cv             0.000 [cal/(mol K)]        0.000 [J/(mol K)]       0.00000000 [mEh/K]

  Constant pressure heat capacity, Cp
    Electronic Cp           0.000 [cal/(mol K)]        0.000 [J/(mol K)]       0.00000000 [mEh/K]
    Translational Cp        4.968 [cal/(mol K)]       20.786 [J/(mol K)]       0.00791703 [mEh/K]
    Rotational Cp           2.981 [cal/(mol K)]       12.472 [J/(mol K)]       0.00475022 [mEh/K]
    Vibrational Cp          0.465 [cal/(mol K)]        1.947 [J/(mol K)]       0.00074159 [mEh/K]
  Total Cp                  8.414 [cal/(mol K)]       35.205 [J/(mol K)]       0.01340883 [mEh/K]
  Correction Cp             0.000 [cal/(mol K)]        0.000 [J/(mol K)]       0.00000000 [mEh/K]

  ==> Thermochemistry Energy Analysis <==

  Raw electronic energy, E0
  Total E0, Electronic energy at well bottom at 0 [K]                 -114.50536708 [Eh]

  Zero-point energy, ZPE_vib = Sum_i nu_i / 2
    Electronic ZPE          0.000 [kcal/mol]        0.000 [kJ/mol]       0.00000000 [Eh]
    Translational ZPE       0.000 [kcal/mol]        0.000 [kJ/mol]       0.00000000 [Eh]
    Rotational ZPE          0.000 [kcal/mol]        0.000 [kJ/mol]       0.00000000 [Eh]
    Vibrational ZPE        16.764 [kcal/mol]       70.141 [kJ/mol]       0.02671542 [Eh]        5863.358 [cm^-1]
  Correction ZPE           16.764 [kcal/mol]       70.141 [kJ/mol]       0.02671542 [Eh]        5863.358 [cm^-1]
  Total ZPE, Electronic energy at 0 [K]                               -114.47865166 [Eh]

  Thermal Energy, E (includes ZPE)
    Electronic E            0.000 [kcal/mol]        0.000 [kJ/mol]       0.00000000 [Eh]
    Translational E         0.889 [kcal/mol]        3.718 [kJ/mol]       0.00141628 [Eh]
    Rotational E            0.889 [kcal/mol]        3.718 [kJ/mol]       0.00141628 [Eh]
    Vibrational E          16.787 [kcal/mol]       70.235 [kJ/mol]       0.02675103 [Eh]
  Correction E             18.564 [kcal/mol]       77.672 [kJ/mol]       0.02958358 [Eh]
  Total E, Electronic energy at  298.15 [K]                           -114.47578350 [Eh]

  Enthalpy, H_trans = E_trans + k_B * T
    Electronic H            0.000 [kcal/mol]        0.000 [kJ/mol]       0.00000000 [Eh]
    Translational H         1.481 [kcal/mol]        6.197 [kJ/mol]       0.00236046 [Eh]
    Rotational H            0.889 [kcal/mol]        3.718 [kJ/mol]       0.00141628 [Eh]
    Vibrational H          16.787 [kcal/mol]       70.235 [kJ/mol]       0.02675103 [Eh]
  Correction H             19.156 [kcal/mol]       80.151 [kJ/mol]       0.03052777 [Eh]
  Total H, Enthalpy at  298.15 [K]                                    -114.47483931 [Eh]

  Gibbs free energy, G = H - T * S
    Electronic G            0.000 [kcal/mol]        0.000 [kJ/mol]       0.00000000 [Eh]
    Translational G        -9.291 [kcal/mol]      -38.874 [kJ/mol]      -0.01480618 [Eh]
    Rotational G           -3.880 [kcal/mol]      -16.235 [kJ/mol]      -0.00618346 [Eh]
    Vibrational G          16.761 [kcal/mol]       70.126 [kJ/mol]       0.02670962 [Eh]
  Correction G              3.589 [kcal/mol]       15.018 [kJ/mol]       0.00571998 [Eh]
  Total G, Free enthalpy at  298.15 [K]                               -114.49964710 [Eh]

*** Psi4 exiting successfully. Buy a developer a beer!
