                               Psi4 1.3.2 release

  ==> Input File <==

--------------------------------------------------------------------------
memory 144 GB

molecule {
0 1
S 0.0000000000 0.0000000000 0.0000000000
C 0.0000000000 0.0000000000 1.2066000000
H 0.9369544103 0.0000000000 1.7870836544
H -0.9369544103 0.0000000000 1.7870836544
}

set dynamic_level 1
set basis aug-cc-pV(T+d)Z

optimize("wB97M-V")
frequencies("wB97M-V")
--------------------------------------------------------------------------

    Molecular point group: c2v
  Charge       = 0
  Multiplicity = 1
  Basis Set: AUG-CC-PV(T+D)Z
    Blend: AUG-CC-PV(T+D)Z
  Basis Set: (AUG-CC-PV(T+D)Z AUX)
    Blend: AUG-CC-PVTZ-JKFIT
  @DF-RKS Final Energy:  -437.18079407224036
    Total Energy =                       -437.1807940722403600
    Molecular point group: c2v
  Basis Set: AUG-CC-PV(T+D)Z
    Blend: AUG-CC-PV(T+D)Z
  Basis Set: (AUG-CC-PV(T+D)Z AUX)
    Blend: AUG-CC-PVTZ-JKFIT
  @DF-RKS Final Energy:  -437.18245179984575
    Total Energy =                       -437.1824517998456940
  Basis Set: AUG-CC-PV(T+D)Z
    Blend: AUG-CC-PV(T+D)Z
  Basis Set: (AUG-CC-PV(T+D)Z AUX)
    Blend: AUG-CC-PVTZ-JKFIT
  @DF-RKS Final Energy:  -437.17912849123326
    Total Energy =                       -437.1791284912333140
  Basis Set: AUG-CC-PV(T+D)Z
    Blend: AUG-CC-PV(T+D)Z
  Basis Set: (AUG-CC-PV(T+D)Z AUX)
    Blend: AUG-CC-PVTZ-JKFIT
  @DF-RKS Final Energy:  -437.18038789146482
    Total Energy =                       -437.1803878914647612
  @DF-RKS Final Energy:  -437.18119556441115
    Total Energy =                       -437.1811955644112118
  @DF-RKS Final Energy:  -437.18084270237563
    Total Energy =                       -437.1808427023755712
  @DF-RKS Final Energy:  -437.18073946185683
    Total Energy =                       -437.1807394618568310
  @DF-RKS Final Energy:  -437.36050026786756
    Total Energy =                       -437.3605002678675078
  @DF-RKS Final Energy:  -437.36124953392152
    Total Energy =                       -437.3612495339215798
  @DF-RKS Final Energy:  -437.35974672763450
    Total Energy =                       -437.3597467276344446
  @DF-RKS Final Energy:  -437.36026979800664
    Total Energy =                       -437.3602697980065841
  @DF-RKS Final Energy:  -437.36072636131945
    Total Energy =                       -437.3607263613194505
  @DF-RKS Final Energy:  -437.36054473547472
    Total Energy =                       -437.3605447354747184
  @DF-RKS Final Energy:  -437.36044972817120
    Total Energy =                       -437.3604497281712042
  @DF-RKS Final Energy:  -437.42521858979438
    Total Energy =                       -437.4252185897943832
  @DF-RKS Final Energy:  -437.42555426923445
    Total Energy =                       -437.4255542692345102
  @DF-RKS Final Energy:  -437.42488028078685
    Total Energy =                       -437.4248802807868515
  @DF-RKS Final Energy:  -437.42509756960317
    Total Energy =                       -437.4250975696031105
  @DF-RKS Final Energy:  -437.42533528391846
    Total Energy =                       -437.4253352839184572
  @DF-RKS Final Energy:  -437.42522708725903
    Total Energy =                       -437.4252270872590884
  **** Optimization is complete! (in 9 steps) ****
    Final optimized geometry and variables:
  @DF-RKS Final Energy:  -437.45266888152867
    Total Energy =                       -437.4526688815287230
  @DF-RKS Final Energy:  -437.45266887160409
    Total Energy =                       -437.4526688716040894
  @DF-RKS Final Energy:  -437.45267241583048
    Total Energy =                       -437.4526724158304205
  @DF-RKS Final Energy:  -437.45267183997436
    Total Energy =                       -437.4526718399744141
  @DF-RKS Final Energy:  -437.45267177640483
    Total Energy =                       -437.4526717764048271
  @DF-RKS Final Energy:  -437.45267042249208
    Total Energy =                       -437.4526704224920763
  @DF-RKS Final Energy:  -437.45267035651653
    Total Energy =                       -437.4526703565165349
  @DF-RKS Final Energy:  -437.45266888152912
    Total Energy =                       -437.4526688815291209
  @DF-RKS Final Energy:  -437.45266887160398
    Total Energy =                       -437.4526688716038620
  @DF-RKS Final Energy:  -437.45266986943335
    Total Energy =                       -437.4526698694333504
  @DF-RKS Final Energy:  -437.45267000052229
    Total Energy =                       -437.4526700005222892
  @DF-RKS Final Energy:  -437.45266820928924
    Total Energy =                       -437.4526682092892997
  @DF-RKS Final Energy:  -437.45266828499484
    Total Energy =                       -437.4526682849948998
  @DF-RKS Final Energy:  -437.45266991854970
    Total Energy =                       -437.4526699185497023
  @DF-RKS Final Energy:  -437.45267001859139
    Total Energy =                       -437.4526700185914478
  @DF-RKS Final Energy:  -437.45267193450934
    Total Energy =                       -437.4526719345092829
  Basis Set: AUG-CC-PV(T+D)Z
    Blend: AUG-CC-PV(T+D)Z
  Basis Set: (AUG-CC-PV(T+D)Z AUX)
    Blend: AUG-CC-PVTZ-JKFIT
  @DF-RKS Final Energy:  -437.45266764986030
    Total Energy =                       -437.4526676498603592
  Basis Set: AUG-CC-PV(T+D)Z
    Blend: AUG-CC-PV(T+D)Z
  Basis Set: (AUG-CC-PV(T+D)Z AUX)
    Blend: AUG-CC-PVTZ-JKFIT
  @DF-RKS Final Energy:  -437.45266720609976
    Total Energy =                       -437.4526672060998180
  Multiplicity = 1
  Basis Set: AUG-CC-PV(T+D)Z
    Blend: AUG-CC-PV(T+D)Z
  Basis Set: (AUG-CC-PV(T+D)Z AUX)
    Blend: AUG-CC-PVTZ-JKFIT
  @DF-RKS Final Energy:  -437.45266720510170
    Total Energy =                       -437.4526672051017613
    Molecular point group: cs

    Geometry (in Angstrom), charge = 0, multiplicity = 1:

       Center              X                  Y                   Z               Mass
    ------------   -----------------  -----------------  -----------------  -----------------
         S            0.000000000000    -0.000036857516    -0.512330684432    31.972071174400
         C            0.000000000000     0.000370770137     1.085903376217    12.000000000000
         H            0.920905395559    -0.001622717447     1.661713336026     1.007825032230
         H           -0.920905395559    -0.001622717447     1.661713336026     1.007825032230

  Charge       = 0
  Multiplicity = 1
  Basis Set: AUG-CC-PV(T+D)Z
    Blend: AUG-CC-PV(T+D)Z
  Basis Set: (AUG-CC-PV(T+D)Z AUX)
    Blend: AUG-CC-PVTZ-JKFIT

    Orbital Energies [Eh]
    ---------------------

    Doubly Occupied:

       1Ap   -89.206442     2Ap   -10.416496     3Ap    -8.121329
       4Ap    -6.031558     5Ap    -6.029371     1App   -6.022356
       6Ap    -0.925714     7Ap    -0.717239     2App   -0.573881
       8Ap    -0.498768     9Ap    -0.419231     3App   -0.328817

  @DF-RKS Final Energy:  -437.45267190778497

   => Energetics <=

    Nuclear Repulsion Energy =             45.0918212167319581
    One-Electron Energy =                -691.5073115280279126
    Two-Electron Energy =                 232.8723746022860723
    DFT Exchange-Correlation Energy =     -24.0087778100866629
    Empirical Dispersion Energy =           0.0000000000000000
    VV10 Nonlocal Energy =                  0.0992216113115040
    Total Energy =                       -437.4526719077849748

  Dipole Moment: [D]
     X:     0.0000      Y:    -0.0026      Z:     1.7199     Total:     1.7199

  Vibration                       7                   8                   9
  Freq [cm^-1]                1008.6270           1036.3360           1125.5234
  Irrep                           B1                  B2                  A1
  Reduced mass [u]              1.2072              1.2952              4.3021
  Force const [mDyne/A]         0.7236              0.8196              3.2110

  Vibration                       10                  11                  12
  Freq [cm^-1]                1495.2086           3089.9134           3174.1583
  Irrep                           A1                  A1                  B1
  Reduced mass [u]              1.2077              1.0508              1.1195
  Force const [mDyne/A]         1.5908              5.9111              6.6454

  ==> Thermochemistry Components <==

  Entropy, S
    Electronic S            0.000 [cal/(mol K)]        0.000 [J/(mol K)]       0.00000000 [mEh/K] (multiplicity = 1)
    Translational S        37.403 [cal/(mol K)]      156.492 [J/(mol K)]       0.05960470 [mEh/K] (mol. weight = 45.9877 [u], P = 101325.00 [Pa])
    Rotational S           17.440 [cal/(mol K)]       72.971 [J/(mol K)]       0.02779310 [mEh/K] (symmetry no. = 2)
    Vibrational S           0.239 [cal/(mol K)]        1.001 [J/(mol K)]       0.00038136 [mEh/K]
  Total S                  55.082 [cal/(mol K)]      230.464 [J/(mol K)]       0.08777916 [mEh/K]
  Correction S              0.000 [cal/(mol K)]        0.000 [J/(mol K)]       0.00000000 [mEh/K]

  Constant volume heat capacity, Cv
    Electronic Cv           0.000 [cal/(mol K)]        0.000 [J/(mol K)]       0.00000000 [mEh/K]
    Translational Cv        2.981 [cal/(mol K)]       12.472 [J/(mol K)]       0.00475022 [mEh/K]
    Rotational Cv           2.981 [cal/(mol K)]       12.472 [J/(mol K)]       0.00475022 [mEh/K]
    Vibrational Cv          1.042 [cal/(mol K)]        4.361 [J/(mol K)]       0.00166088 [mEh/K]
  Total Cv                  7.004 [cal/(mol K)]       29.304 [J/(mol K)]       0.01116131 [mEh/K]
  Correction Cv             0.000 [cal/(mol K)]        0.000 [J/(mol K)]       0.00000000 [mEh/K]

  Constant pressure heat capacity, Cp
    Electronic Cp           0.000 [cal/(mol K)]        0.000 [J/(mol K)]       0.00000000 [mEh/K]
    Translational Cp        4.968 [cal/(mol K)]       20.786 [J/(mol K)]       0.00791703 [mEh/K]
    Rotational Cp           2.981 [cal/(mol K)]       12.472 [J/(mol K)]       0.00475022 [mEh/K]
    Vibrational Cp          1.042 [cal/(mol K)]        4.361 [J/(mol K)]       0.00166088 [mEh/K]
  Total Cp                  8.991 [cal/(mol K)]       37.618 [J/(mol K)]       0.01432812 [mEh/K]
  Correction Cp             0.000 [cal/(mol K)]        0.000 [J/(mol K)]       0.00000000 [mEh/K]

  ==> Thermochemistry Energy Analysis <==

  Raw electronic energy, E0
  Total E0, Electronic energy at well bottom at 0 [K]                 -437.45267242 [Eh]

  Zero-point energy, ZPE_vib = Sum_i nu_i / 2
    Electronic ZPE          0.000 [kcal/mol]        0.000 [kJ/mol]       0.00000000 [Eh]
    Translational ZPE       0.000 [kcal/mol]        0.000 [kJ/mol]       0.00000000 [Eh]
    Rotational ZPE          0.000 [kcal/mol]        0.000 [kJ/mol]       0.00000000 [Eh]
    Vibrational ZPE        15.625 [kcal/mol]       65.375 [kJ/mol]       0.02489984 [Eh]        5464.883 [cm^-1]
  Correction ZPE           15.625 [kcal/mol]       65.375 [kJ/mol]       0.02489984 [Eh]        5464.883 [cm^-1]
  Total ZPE, Electronic energy at 0 [K]                               -437.42777258 [Eh]

  Thermal Energy, E (includes ZPE)
    Electronic E            0.000 [kcal/mol]        0.000 [kJ/mol]       0.00000000 [Eh]
    Translational E         0.889 [kcal/mol]        3.718 [kJ/mol]       0.00141628 [Eh]
    Rotational E            0.889 [kcal/mol]        3.718 [kJ/mol]       0.00141628 [Eh]
    Vibrational E          15.685 [kcal/mol]       65.624 [kJ/mol]       0.02499504 [Eh]
  Correction E             17.462 [kcal/mol]       73.061 [kJ/mol]       0.02782759 [Eh]
  Total E, Electronic energy at  298.15 [K]                           -437.42484483 [Eh]

  Enthalpy, H_trans = E_trans + k_B * T
    Electronic H            0.000 [kcal/mol]        0.000 [kJ/mol]       0.00000000 [Eh]
    Translational H         1.481 [kcal/mol]        6.197 [kJ/mol]       0.00236046 [Eh]
    Rotational H            0.889 [kcal/mol]        3.718 [kJ/mol]       0.00141628 [Eh]
    Vibrational H          15.685 [kcal/mol]       65.624 [kJ/mol]       0.02499504 [Eh]
  Correction H             18.055 [kcal/mol]       75.540 [kJ/mol]       0.02877177 [Eh]
  Total H, Enthalpy at  298.15 [K]                                    -437.42390064 [Eh]

  Gibbs free energy, G = H - T * S
    Electronic G            0.000 [kcal/mol]        0.000 [kJ/mol]       0.00000000 [Eh]
    Translational G        -9.670 [kcal/mol]      -40.461 [kJ/mol]      -0.01541068 [Eh]
    Rotational G           -4.311 [kcal/mol]      -18.038 [kJ/mol]      -0.00687023 [Eh]
    Vibrational G          15.613 [kcal/mol]       65.326 [kJ/mol]       0.02488133 [Eh]
  Correction G              1.632 [kcal/mol]        6.827 [kJ/mol]       0.00260042 [Eh]
  Total G, Free enthalpy at  298.15 [K]                               -437.45007200 [Eh]

*** Psi4 exiting successfully. Buy a developer a beer!
