                               Psi4 1.3.2 release

  ==> Input File <==

--------------------------------------------------------------------------
memory 144 GB

molecule {
0 1
O 0.0000000000 0.0000000000 0.0000000000
H 0.0000000000 0.0000000000 0.9579000000
H 0.9289588892 0.0000000000 -0.2336831018
}

set dynamic_level 1
set basis aug-cc-pV(T+d)Z

optimize("wB97M-V")
frequencies("wB97M-V")
--------------------------------------------------------------------------

    Molecular point group: c2v
  Charge       = 0
  Multiplicity = 1
  Basis Set: AUG-CC-PV(T+D)Z
    Blend: AUG-CC-PV(T+D)Z
  Basis Set: (AUG-CC-PV(T+D)Z AUX)
    Blend: AUG-CC-PVTZ-JKFIT
  @DF-RKS Final Energy:   -76.43256318283143
    Total Energy =                        -76.4325631828314300
    Molecular point group: c2v
  Basis Set: AUG-CC-PV(T+D)Z
    Blend: AUG-CC-PV(T+D)Z
  Basis Set: (AUG-CC-PV(T+D)Z AUX)
    Blend: AUG-CC-PVTZ-JKFIT
  @DF-RKS Final Energy:   -76.43256549555852
    Total Energy =                        -76.4325654955585208
  Basis Set: AUG-CC-PV(T+D)Z
    Blend: AUG-CC-PV(T+D)Z
  Basis Set: (AUG-CC-PV(T+D)Z AUX)
    Blend: AUG-CC-PVTZ-JKFIT
  @DF-RKS Final Energy:   -76.43255437058770
    Total Energy =                        -76.4325543705877095
  Basis Set: AUG-CC-PV(T+D)Z
    Blend: AUG-CC-PV(T+D)Z
  Basis Set: (AUG-CC-PV(T+D)Z AUX)
    Blend: AUG-CC-PVTZ-JKFIT
  @DF-RKS Final Energy:   -76.43253644433757
    Total Energy =                        -76.4325364443375577
  @DF-RKS Final Energy:   -76.43257976083466
    Total Energy =                        -76.4325797608346420
  @DF-RKS Final Energy:   -76.43259131710983
    Total Energy =                        -76.4325913171098108
  @DF-RKS Final Energy:   -76.43258750550470
    Total Energy =                        -76.4325875055046993
  @DF-RKS Final Energy:   -76.43258879101610
    Total Energy =                        -76.4325887910161015
  @DF-RKS Final Energy:   -76.43258895437518
    Total Energy =                        -76.4325889543751771
  @DF-RKS Final Energy:   -76.43258366097798
    Total Energy =                        -76.4325836609779827
  @DF-RKS Final Energy:   -76.43259175957191
    Total Energy =                        -76.4325917595719204
  @DF-RKS Final Energy:   -76.43258857764734
    Total Energy =                        -76.4325885776473370
  @DF-RKS Final Energy:   -76.43258858421120
    Total Energy =                        -76.4325885842111887
  @DF-RKS Final Energy:   -76.43258676250305
    Total Energy =                        -76.4325867625030497
  @DF-RKS Final Energy:   -76.43258671882445
    Total Energy =                        -76.4325867188244530
  **** Optimization is complete! (in 3 steps) ****
    Final optimized geometry and variables:
  @DF-RKS Final Energy:   -76.43259175957192
    Total Energy =                        -76.4325917595719346
  @DF-RKS Final Energy:   -76.43258857764727
    Total Energy =                        -76.4325885776472802
  @DF-RKS Final Energy:   -76.43258858421116
    Total Energy =                        -76.4325885842111603
  @DF-RKS Final Energy:   -76.43258676250304
    Total Energy =                        -76.4325867625030355
  @DF-RKS Final Energy:   -76.43258671882455
    Total Energy =                        -76.4325867188245525
  @DF-RKS Final Energy:   -76.43259175957203
    Total Energy =                        -76.4325917595720341
  @DF-RKS Final Energy:   -76.43258857764751
    Total Energy =                        -76.4325885776475076
  @DF-RKS Final Energy:   -76.43258858421120
    Total Energy =                        -76.4325885842112029
  @DF-RKS Final Energy:   -76.43258676250299
    Total Energy =                        -76.4325867625029787
  Basis Set: AUG-CC-PV(T+D)Z
    Blend: AUG-CC-PV(T+D)Z
  Basis Set: (AUG-CC-PV(T+D)Z AUX)
    Blend: AUG-CC-PVTZ-JKFIT
  @DF-RKS Final Energy:   -76.43258671882454
    Total Energy =                        -76.4325867188245525
  Basis Set: AUG-CC-PV(T+D)Z
    Blend: AUG-CC-PV(T+D)Z
  Basis Set: (AUG-CC-PV(T+D)Z AUX)
    Blend: AUG-CC-PVTZ-JKFIT
  @DF-RKS Final Energy:   -76.43258891658802
    Total Energy =                        -76.4325889165880170
  Multiplicity = 1
  Basis Set: AUG-CC-PV(T+D)Z
    Blend: AUG-CC-PV(T+D)Z
  Basis Set: (AUG-CC-PV(T+D)Z AUX)
    Blend: AUG-CC-PVTZ-JKFIT
  @DF-RKS Final Energy:   -76.43258897402269
    Total Energy =                        -76.4325889740227211
    Molecular point group: cs

    Geometry (in Angstrom), charge = 0, multiplicity = 1:

       Center              X                  Y                   Z               Mass
    ------------   -----------------  -----------------  -----------------  -----------------
         O            0.000000000000    -0.000179201998    -0.065522301968    15.994914619570
         H            0.000000000000     0.762649589674     0.521036935842     1.007825032230
         H            0.000000000000    -0.759805523916     0.518849544587     1.007825032230

  Charge       = 0
  Multiplicity = 1
  Basis Set: AUG-CC-PV(T+D)Z
    Blend: AUG-CC-PV(T+D)Z
  Basis Set: (AUG-CC-PV(T+D)Z AUX)
    Blend: AUG-CC-PVTZ-JKFIT

    Orbital Energies [Eh]
    ---------------------

    Doubly Occupied:

       1Ap   -19.340911     2Ap    -1.144186     3Ap    -0.642597
       4Ap    -0.503471     1App   -0.428132

  @DF-RKS Final Energy:   -76.43258444217231

   => Energetics <=

    Nuclear Repulsion Energy =              9.1641892398370590
    One-Electron Energy =                -122.9333035188826102
    Two-Electron Energy =                  43.9465580091113281
    DFT Exchange-Correlation Energy =      -6.6525908774227211
    Empirical Dispersion Energy =           0.0000000000000000
    VV10 Nonlocal Energy =                  0.0425627051846323
    Total Energy =                        -76.4325844421723133

  Dipole Moment: [D]
     X:     0.0000      Y:     0.0033      Z:     1.8514     Total:     1.8514

  Vibration                       7                   8                   9
  Freq [cm^-1]                1628.2966           3831.1899           3933.0336
  Irrep                           A1                  A1                  B2
  Reduced mass [u]              1.0830              1.0449              1.0822
  Force const [mDyne/A]         1.6917              9.0362              9.8633

  ==> Thermochemistry Components <==

  Entropy, S
    Electronic S            0.000 [cal/(mol K)]        0.000 [J/(mol K)]       0.00000000 [mEh/K] (multiplicity = 1)
    Translational S        34.608 [cal/(mol K)]      144.801 [J/(mol K)]       0.05515177 [mEh/K] (mol. weight = 18.0106 [u], P = 101325.00 [Pa])
    Rotational S           10.462 [cal/(mol K)]       43.775 [J/(mol K)]       0.01667293 [mEh/K] (symmetry no. = 2)
    Vibrational S           0.007 [cal/(mol K)]        0.028 [J/(mol K)]       0.00001085 [mEh/K]
  Total S                  45.077 [cal/(mol K)]      188.604 [J/(mol K)]       0.07183555 [mEh/K]
  Correction S              0.000 [cal/(mol K)]        0.000 [J/(mol K)]       0.00000000 [mEh/K]

  Constant volume heat capacity, Cv
    Electronic Cv           0.000 [cal/(mol K)]        0.000 [J/(mol K)]       0.00000000 [mEh/K]
    Translational Cv        2.981 [cal/(mol K)]       12.472 [J/(mol K)]       0.00475022 [mEh/K]
    Rotational Cv           2.981 [cal/(mol K)]       12.472 [J/(mol K)]       0.00475022 [mEh/K]
    Vibrational Cv          0.048 [cal/(mol K)]        0.199 [J/(mol K)]       0.00007570 [mEh/K]
  Total Cv                  6.009 [cal/(mol K)]       25.142 [J/(mol K)]       0.00957613 [mEh/K]
  Correction Cv             0.000 [cal/(mol K)]        0.000 [J/(mol K)]       0.00000000 [mEh/K]

  Constant pressure heat capacity, Cp
    Electronic Cp           0.000 [cal/(mol K)]        0.000 [J/(mol K)]       0.00000000 [mEh/K]
    Translational Cp        4.968 [cal/(mol K)]       20.786 [J/(mol K)]       0.00791703 [mEh/K]
    Rotational Cp           2.981 [cal/(mol K)]       12.472 [J/(mol K)]       0.00475022 [mEh/K]
    Vibrational Cp          0.048 [cal/(mol K)]        0.199 [J/(mol K)]       0.00007570 [mEh/K]
  Total Cp                  7.996 [cal/(mol K)]       33.457 [J/(mol K)]       0.01274294 [mEh/K]
  Correction Cp             0.000 [cal/(mol K)]        0.000 [J/(mol K)]       0.00000000 [mEh/K]

  ==> Thermochemistry Energy Analysis <==

  Raw electronic energy, E0
  Total E0, Electronic energy at well bottom at 0 [K]                  -76.43259176 [Eh]

  Zero-point energy, ZPE_vib = Sum_i nu_i / 2
    Electronic ZPE          0.000 [kcal/mol]        0.000 [kJ/mol]       0.00000000 [Eh]
    Translational ZPE       0.000 [kcal/mol]        0.000 [kJ/mol]       0.00000000 [Eh]
    Rotational ZPE          0.000 [kcal/mol]        0.000 [kJ/mol]       0.00000000 [Eh]
    Vibrational ZPE        13.427 [kcal/mol]       56.180 [kJ/mol]       0.02139774 [Eh]        4696.260 [cm^-1]
  Correction ZPE           13.427 [kcal/mol]       56.180 [kJ/mol]       0.02139774 [Eh]        4696.260 [cm^-1]
  Total ZPE, Electronic energy at 0 [K]                                -76.41119402 [Eh]

  Thermal Energy, E (includes ZPE)
    Electronic E            0.000 [kcal/mol]        0.000 [kJ/mol]       0.00000000 [Eh]
    Translational E         0.889 [kcal/mol]        3.718 [kJ/mol]       0.00141628 [Eh]
    Rotational E            0.889 [kcal/mol]        3.718 [kJ/mol]       0.00141628 [Eh]
    Vibrational E          13.429 [kcal/mol]       56.187 [kJ/mol]       0.02140061 [Eh]
  Correction E             15.207 [kcal/mol]       63.624 [kJ/mol]       0.02423316 [Eh]
  Total E, Electronic energy at  298.15 [K]                            -76.40835860 [Eh]

  Enthalpy, H_trans = E_trans + k_B * T
    Electronic H            0.000 [kcal/mol]        0.000 [kJ/mol]       0.00000000 [Eh]
    Translational H         1.481 [kcal/mol]        6.197 [kJ/mol]       0.00236046 [Eh]
    Rotational H            0.889 [kcal/mol]        3.718 [kJ/mol]       0.00141628 [Eh]
    Vibrational H          13.429 [kcal/mol]       56.187 [kJ/mol]       0.02140061 [Eh]
  Correction H             15.799 [kcal/mol]       66.103 [kJ/mol]       0.02517734 [Eh]
  Total H, Enthalpy at  298.15 [K]                                     -76.40741442 [Eh]

  Gibbs free energy, G = H - T * S
    Electronic G            0.000 [kcal/mol]        0.000 [kJ/mol]       0.00000000 [Eh]
    Translational G        -8.837 [kcal/mol]      -36.975 [kJ/mol]      -0.01408304 [Eh]
    Rotational G           -2.231 [kcal/mol]       -9.333 [kJ/mol]      -0.00355476 [Eh]
    Vibrational G          13.427 [kcal/mol]       56.179 [kJ/mol]       0.02139737 [Eh]
  Correction G              2.359 [kcal/mol]        9.871 [kJ/mol]       0.00375957 [Eh]
  Total G, Free enthalpy at  298.15 [K]                                -76.42883219 [Eh]

*** Psi4 exiting successfully. Buy a developer a beer!
