                               Psi4 1.3.2 release

  ==> Input File <==

--------------------------------------------------------------------------
memory 144 GB

molecule {
0 1
S 0.0000000000 0.0000000000 0.0000000000
H 0.0000000000 0.0000000000 1.3377284100
H 1.3366219004 0.0000000000 -0.0543984776
}

set dynamic_level 1
set basis aug-cc-pV(T+d)Z

optimize("wB97M-V")
frequencies("wB97M-V")
--------------------------------------------------------------------------

    Molecular point group: c2v
  Charge       = 0
  Multiplicity = 1
  Basis Set: AUG-CC-PV(T+D)Z
    Blend: AUG-CC-PV(T+D)Z
  Basis Set: (AUG-CC-PV(T+D)Z AUX)
    Blend: AUG-CC-PVTZ-JKFIT
  @DF-RKS Final Energy:  -399.38181200041299
    Total Energy =                       -399.3818120004129923
    Molecular point group: c2v
  Basis Set: AUG-CC-PV(T+D)Z
    Blend: AUG-CC-PV(T+D)Z
  Basis Set: (AUG-CC-PV(T+D)Z AUX)
    Blend: AUG-CC-PVTZ-JKFIT
  @DF-RKS Final Energy:  -399.38180986111564
    Total Energy =                       -399.3818098611155847
  Basis Set: AUG-CC-PV(T+D)Z
    Blend: AUG-CC-PV(T+D)Z
  Basis Set: (AUG-CC-PV(T+D)Z AUX)
    Blend: AUG-CC-PVTZ-JKFIT
  @DF-RKS Final Energy:  -399.38181008806157
    Total Energy =                       -399.3818100880615702
  Basis Set: AUG-CC-PV(T+D)Z
    Blend: AUG-CC-PV(T+D)Z
  Basis Set: (AUG-CC-PV(T+D)Z AUX)
    Blend: AUG-CC-PVTZ-JKFIT
  @DF-RKS Final Energy:  -399.38181049152092
    Total Energy =                       -399.3818104915209801
  @DF-RKS Final Energy:  -399.38180912634203
    Total Energy =                       -399.3818091263420342
  **** Optimization is complete! (in 1 steps) ****
    Final optimized geometry and variables:
  @DF-RKS Final Energy:  -399.38181200041299
    Total Energy =                       -399.3818120004129355
  @DF-RKS Final Energy:  -399.38180986111541
    Total Energy =                       -399.3818098611154142
  @DF-RKS Final Energy:  -399.38181008806163
    Total Energy =                       -399.3818100880616271
  @DF-RKS Final Energy:  -399.38181049152075
    Total Energy =                       -399.3818104915207527
  @DF-RKS Final Energy:  -399.38180912634198
    Total Energy =                       -399.3818091263420342
  @DF-RKS Final Energy:  -399.38181200041282
    Total Energy =                       -399.3818120004128218
  @DF-RKS Final Energy:  -399.38180986111547
    Total Energy =                       -399.3818098611154142
  @DF-RKS Final Energy:  -399.38181008806225
    Total Energy =                       -399.3818100880622524
  @DF-RKS Final Energy:  -399.38181049152035
    Total Energy =                       -399.3818104915204117
  Basis Set: AUG-CC-PV(T+D)Z
    Blend: AUG-CC-PV(T+D)Z
  Basis Set: (AUG-CC-PV(T+D)Z AUX)
    Blend: AUG-CC-PVTZ-JKFIT
  @DF-RKS Final Energy:  -399.38180912634238
    Total Energy =                       -399.3818091263423753
  Basis Set: AUG-CC-PV(T+D)Z
    Blend: AUG-CC-PV(T+D)Z
  Basis Set: (AUG-CC-PV(T+D)Z AUX)
    Blend: AUG-CC-PVTZ-JKFIT
  @DF-RKS Final Energy:  -399.38181004106156
    Total Energy =                       -399.3818100410616125
  Multiplicity = 1
  Basis Set: AUG-CC-PV(T+D)Z
    Blend: AUG-CC-PV(T+D)Z
  Basis Set: (AUG-CC-PV(T+D)Z AUX)
    Blend: AUG-CC-PVTZ-JKFIT
  @DF-RKS Final Energy:  -399.38181118421488
    Total Energy =                       -399.3818111842148824
    Molecular point group: cs

    Geometry (in Angstrom), charge = 0, multiplicity = 1:

       Center              X                  Y                   Z               Mass
    ------------   -----------------  -----------------  -----------------  -----------------
         S            0.000000000000    -0.000083394890    -0.054945385977    31.972071174400
         H            0.000000000000     0.966280752027     0.872809135951     1.007825032230
         H            0.000000000000    -0.963635146609     0.870269012510     1.007825032230

  Charge       = 0
  Multiplicity = 1
  Basis Set: AUG-CC-PV(T+D)Z
    Blend: AUG-CC-PV(T+D)Z
  Basis Set: (AUG-CC-PV(T+D)Z AUX)
    Blend: AUG-CC-PVTZ-JKFIT

    Orbital Energies [Eh]
    ---------------------

    Doubly Occupied:

       1Ap   -89.211046     2Ap    -8.126317     3Ap    -6.036380
       4Ap    -6.033628     1App   -6.028273     5Ap    -0.863032
       6Ap    -0.543226     7Ap    -0.466681     2App   -0.360964

  @DF-RKS Final Energy:  -399.38180848997877

   => Energetics <=

    Nuclear Repulsion Energy =             12.9327488161425777
    One-Electron Energy =                -576.7070881578578110
    Two-Electron Energy =                 184.4739449633948993
    DFT Exchange-Correlation Energy =     -20.1571429979508885
    Empirical Dispersion Energy =           0.0000000000000000
    VV10 Nonlocal Energy =                  0.0757288862924161
    Total Energy =                       -399.3818084899787095

  Dipole Moment: [D]
     X:     0.0000      Y:     0.0000      Z:     0.9729     Total:     0.9729

  Vibration                       7                   8                   9
  Freq [cm^-1]                1209.0223           2724.1416           2730.1129
  Irrep                           A1                  B2                  A1
  Reduced mass [u]              1.0394              1.0398              1.0358
  Force const [mDyne/A]         0.8952              4.5464              4.5488

  ==> Thermochemistry Components <==

  Entropy, S
    Electronic S            0.000 [cal/(mol K)]        0.000 [J/(mol K)]       0.00000000 [mEh/K] (multiplicity = 1)
    Translational S        36.501 [cal/(mol K)]      152.721 [J/(mol K)]       0.05816835 [mEh/K] (mol. weight = 33.9877 [u], P = 101325.00 [Pa])
    Rotational S           12.575 [cal/(mol K)]       52.615 [J/(mol K)]       0.02003982 [mEh/K] (symmetry no. = 2)
    Vibrational S           0.040 [cal/(mol K)]        0.167 [J/(mol K)]       0.00006366 [mEh/K]
  Total S                  49.116 [cal/(mol K)]      205.503 [J/(mol K)]       0.07827183 [mEh/K]
  Correction S              0.000 [cal/(mol K)]        0.000 [J/(mol K)]       0.00000000 [mEh/K]

  Constant volume heat capacity, Cv
    Electronic Cv           0.000 [cal/(mol K)]        0.000 [J/(mol K)]       0.00000000 [mEh/K]
    Translational Cv        2.981 [cal/(mol K)]       12.472 [J/(mol K)]       0.00475022 [mEh/K]
    Rotational Cv           2.981 [cal/(mol K)]       12.472 [J/(mol K)]       0.00475022 [mEh/K]
    Vibrational Cv          0.200 [cal/(mol K)]        0.838 [J/(mol K)]       0.00031931 [mEh/K]
  Total Cv                  6.162 [cal/(mol K)]       25.782 [J/(mol K)]       0.00981974 [mEh/K]
  Correction Cv             0.000 [cal/(mol K)]        0.000 [J/(mol K)]       0.00000000 [mEh/K]

  Constant pressure heat capacity, Cp
    Electronic Cp           0.000 [cal/(mol K)]        0.000 [J/(mol K)]       0.00000000 [mEh/K]
    Translational Cp        4.968 [cal/(mol K)]       20.786 [J/(mol K)]       0.00791703 [mEh/K]
    Rotational Cp           2.981 [cal/(mol K)]       12.472 [J/(mol K)]       0.00475022 [mEh/K]
    Vibrational Cp          0.200 [cal/(mol K)]        0.838 [J/(mol K)]       0.00031931 [mEh/K]
  Total Cp                  8.149 [cal/(mol K)]       34.096 [J/(mol K)]       0.01298655 [mEh/K]
  Correction Cp             0.000 [cal/(mol K)]        0.000 [J/(mol K)]       0.00000000 [mEh/K]

  ==> Thermochemistry Energy Analysis <==

  Raw electronic energy, E0
  Total E0, Electronic energy at well bottom at 0 [K]                 -399.38181200 [Eh]

  Zero-point energy, ZPE_vib = Sum_i nu_i / 2
    Electronic ZPE          0.000 [kcal/mol]        0.000 [kJ/mol]       0.00000000 [Eh]
    Translational ZPE       0.000 [kcal/mol]        0.000 [kJ/mol]       0.00000000 [Eh]
    Rotational ZPE          0.000 [kcal/mol]        0.000 [kJ/mol]       0.00000000 [Eh]
    Vibrational ZPE         9.526 [kcal/mol]       39.855 [kJ/mol]       0.01518006 [Eh]        3331.638 [cm^-1]
  Correction ZPE            9.526 [kcal/mol]       39.855 [kJ/mol]       0.01518006 [Eh]        3331.638 [cm^-1]
  Total ZPE, Electronic energy at 0 [K]                               -399.36663194 [Eh]

  Thermal Energy, E (includes ZPE)
    Electronic E            0.000 [kcal/mol]        0.000 [kJ/mol]       0.00000000 [Eh]
    Translational E         0.889 [kcal/mol]        3.718 [kJ/mol]       0.00141628 [Eh]
    Rotational E            0.889 [kcal/mol]        3.718 [kJ/mol]       0.00141628 [Eh]
    Vibrational E           9.536 [kcal/mol]       39.898 [kJ/mol]       0.01519627 [Eh]
  Correction E             11.313 [kcal/mol]       47.335 [kJ/mol]       0.01802882 [Eh]
  Total E, Electronic energy at  298.15 [K]                           -399.36378318 [Eh]

  Enthalpy, H_trans = E_trans + k_B * T
    Electronic H            0.000 [kcal/mol]        0.000 [kJ/mol]       0.00000000 [Eh]
    Translational H         1.481 [kcal/mol]        6.197 [kJ/mol]       0.00236046 [Eh]
    Rotational H            0.889 [kcal/mol]        3.718 [kJ/mol]       0.00141628 [Eh]
    Vibrational H           9.536 [kcal/mol]       39.898 [kJ/mol]       0.01519627 [Eh]
  Correction H             11.906 [kcal/mol]       49.814 [kJ/mol]       0.01897301 [Eh]
  Total H, Enthalpy at  298.15 [K]                                    -399.36283899 [Eh]

  Gibbs free energy, G = H - T * S
    Electronic G            0.000 [kcal/mol]        0.000 [kJ/mol]       0.00000000 [Eh]
    Translational G        -9.402 [kcal/mol]      -39.336 [kJ/mol]      -0.01498243 [Eh]
    Rotational G           -2.861 [kcal/mol]      -11.969 [kJ/mol]      -0.00455859 [Eh]
    Vibrational G           9.524 [kcal/mol]       39.848 [kJ/mol]       0.01517729 [Eh]
  Correction G             -2.738 [kcal/mol]      -11.457 [kJ/mol]      -0.00436374 [Eh]
  Total G, Free enthalpy at  298.15 [K]                               -399.38617574 [Eh]

*** Psi4 exiting successfully. Buy a developer a beer!
