                               Psi4 1.3.2 release

  ==> Input File <==

--------------------------------------------------------------------------
memory 144 GB

molecule {
0 1
Cl 0.0000000000 0.0000000000 0.0000000000
H 0.0000000000 0.0000000000 1.2756042300
}

set dynamic_level 1
set basis aug-cc-pV(T+d)Z

optimize("wB97M-V")
frequencies("wB97M-V")
--------------------------------------------------------------------------

    Molecular point group: c2v
  Charge       = 0
  Multiplicity = 1
  Basis Set: AUG-CC-PV(T+D)Z
    Blend: AUG-CC-PV(T+D)Z
  Basis Set: (AUG-CC-PV(T+D)Z AUX)
    Blend: AUG-CC-PVTZ-JKFIT
  @DF-RKS Final Energy:  -460.79983264628595
    Total Energy =                       -460.7998326462860064
    Molecular point group: c2v
  Basis Set: AUG-CC-PV(T+D)Z
    Blend: AUG-CC-PV(T+D)Z
  Basis Set: (AUG-CC-PV(T+D)Z AUX)
    Blend: AUG-CC-PVTZ-JKFIT
  @DF-RKS Final Energy:  -460.79983466821159
    Total Energy =                       -460.7998346682115880
  Basis Set: AUG-CC-PV(T+D)Z
    Blend: AUG-CC-PV(T+D)Z
  Basis Set: (AUG-CC-PV(T+D)Z AUX)
    Blend: AUG-CC-PVTZ-JKFIT
  @DF-RKS Final Energy:  -460.79982206263742
    Total Energy =                       -460.7998220626373609
  Basis Set: AUG-CC-PV(T+D)Z
    Blend: AUG-CC-PV(T+D)Z
  Basis Set: (AUG-CC-PV(T+D)Z AUX)
    Blend: AUG-CC-PVTZ-JKFIT
  @DF-RKS Final Energy:  -460.79983495649850
    Total Energy =                       -460.7998349564984437
  @DF-RKS Final Energy:  -460.79983052100886
    Total Energy =                       -460.7998305210088574
  @DF-RKS Final Energy:  -460.79983092488942
    Total Energy =                       -460.7998309248894202
  **** Optimization is complete! (in 2 steps) ****
    Final optimized geometry and variables:
  @DF-RKS Final Energy:  -460.79983495649850
    Total Energy =                       -460.7998349564984437
  @DF-RKS Final Energy:  -460.79983052100869
    Total Energy =                       -460.7998305210086869
  Basis Set: AUG-CC-PV(T+D)Z
    Blend: AUG-CC-PV(T+D)Z
  Basis Set: (AUG-CC-PV(T+D)Z AUX)
    Blend: AUG-CC-PVTZ-JKFIT
  @DF-RKS Final Energy:  -460.79983092488902
    Total Energy =                       -460.7998309248890791
  Basis Set: AUG-CC-PV(T+D)Z
    Blend: AUG-CC-PV(T+D)Z
  Basis Set: (AUG-CC-PV(T+D)Z AUX)
    Blend: AUG-CC-PVTZ-JKFIT
  @DF-RKS Final Energy:  -460.79983495649844
    Total Energy =                       -460.7998349564984437
  Multiplicity = 1
  Basis Set: AUG-CC-PV(T+D)Z
    Blend: AUG-CC-PV(T+D)Z
  Basis Set: (AUG-CC-PV(T+D)Z AUX)
    Blend: AUG-CC-PVTZ-JKFIT
  @DF-RKS Final Energy:  -460.79983052100869
    Total Energy =                       -460.7998305210086301
    Molecular point group: c2v

    Geometry (in Angstrom), charge = 0, multiplicity = 1:

       Center              X                  Y                   Z               Mass
    ------------   -----------------  -----------------  -----------------  -----------------
         CL           0.000000000000     0.000000000000    -0.035716195981    34.968852682000
         H            0.000000000000     0.000000000000     1.239257168321     1.007825032230

  Charge       = 0
  Multiplicity = 1
  Basis Set: AUG-CC-PV(T+D)Z
    Blend: AUG-CC-PV(T+D)Z
  Basis Set: (AUG-CC-PV(T+D)Z AUX)
    Blend: AUG-CC-PVTZ-JKFIT

    Orbital Energies [Eh]
    ---------------------

    Doubly Occupied:

       1A1  -101.901311     2A1    -9.659297     3A1    -7.363855
       1B1    -7.356067     1B2    -7.356067     4A1    -0.968855
       5A1    -0.574864     2B2    -0.435712     2B1    -0.435712

  @DF-RKS Final Energy:  -460.79983092488879

   => Energetics <=

    Nuclear Repulsion Energy =              7.0558435440872884
    One-Electron Energy =                -649.8643099354526385
    Two-Electron Energy =                 203.9383842332205177
    DFT Exchange-Correlation Energy =     -22.0061406586524626
    Empirical Dispersion Energy =           0.0000000000000000
    VV10 Nonlocal Energy =                  0.0763918919084776
    Total Energy =                       -460.7998309248887381

  Dipole Moment: [D]
     X:     0.0000      Y:     0.0000      Z:     1.0990     Total:     1.0990

  Vibration                       6
  Freq [cm^-1]                2991.5868
  Irrep                           A1
  Reduced mass [u]              1.0360
  Force const [mDyne/A]         5.4628

  ==> Thermochemistry Components <==

  Entropy, S
    Electronic S            0.000 [cal/(mol K)]        0.000 [J/(mol K)]       0.00000000 [mEh/K] (multiplicity = 1)
    Translational S        36.671 [cal/(mol K)]      153.430 [J/(mol K)]       0.05843851 [mEh/K] (mol. weight = 35.9767 [u], P = 101325.00 [Pa])
    Rotational S            7.906 [cal/(mol K)]       33.078 [J/(mol K)]       0.01259890 [mEh/K] (symmetry no. = 1)
    Vibrational S           0.000 [cal/(mol K)]        0.000 [J/(mol K)]       0.00000003 [mEh/K]
  Total S                  44.577 [cal/(mol K)]      186.509 [J/(mol K)]       0.07103744 [mEh/K]
  Correction S              0.000 [cal/(mol K)]        0.000 [J/(mol K)]       0.00000000 [mEh/K]

  Constant volume heat capacity, Cv
    Electronic Cv           0.000 [cal/(mol K)]        0.000 [J/(mol K)]       0.00000000 [mEh/K]
    Translational Cv        2.981 [cal/(mol K)]       12.472 [J/(mol K)]       0.00475022 [mEh/K]
    Rotational Cv           1.987 [cal/(mol K)]        8.314 [J/(mol K)]       0.00316681 [mEh/K]
    Vibrational Cv          0.000 [cal/(mol K)]        0.001 [J/(mol K)]       0.00000035 [mEh/K]
  Total Cv                  4.968 [cal/(mol K)]       20.787 [J/(mol K)]       0.00791738 [mEh/K]
  Correction Cv             0.000 [cal/(mol K)]        0.000 [J/(mol K)]       0.00000000 [mEh/K]

  Constant pressure heat capacity, Cp
    Electronic Cp           0.000 [cal/(mol K)]        0.000 [J/(mol K)]       0.00000000 [mEh/K]
    Translational Cp        4.968 [cal/(mol K)]       20.786 [J/(mol K)]       0.00791703 [mEh/K]
    Rotational Cp           1.987 [cal/(mol K)]        8.314 [J/(mol K)]       0.00316681 [mEh/K]
    Vibrational Cp          0.000 [cal/(mol K)]        0.001 [J/(mol K)]       0.00000035 [mEh/K]
  Total Cp                  6.955 [cal/(mol K)]       29.102 [J/(mol K)]       0.01108419 [mEh/K]
  Correction Cp             0.000 [cal/(mol K)]        0.000 [J/(mol K)]       0.00000000 [mEh/K]

  ==> Thermochemistry Energy Analysis <==

  Raw electronic energy, E0
  Total E0, Electronic energy at well bottom at 0 [K]                 -460.79983496 [Eh]

  Zero-point energy, ZPE_vib = Sum_i nu_i / 2
    Electronic ZPE          0.000 [kcal/mol]        0.000 [kJ/mol]       0.00000000 [Eh]
    Translational ZPE       0.000 [kcal/mol]        0.000 [kJ/mol]       0.00000000 [Eh]
    Rotational ZPE          0.000 [kcal/mol]        0.000 [kJ/mol]       0.00000000 [Eh]
    Vibrational ZPE         4.277 [kcal/mol]       17.894 [kJ/mol]       0.00681534 [Eh]        1495.793 [cm^-1]
  Correction ZPE            4.277 [kcal/mol]       17.894 [kJ/mol]       0.00681534 [Eh]        1495.793 [cm^-1]
  Total ZPE, Electronic energy at 0 [K]                               -460.79301962 [Eh]

  Thermal Energy, E (includes ZPE)
    Electronic E            0.000 [kcal/mol]        0.000 [kJ/mol]       0.00000000 [Eh]
    Translational E         0.889 [kcal/mol]        3.718 [kJ/mol]       0.00141628 [Eh]
    Rotational E            0.592 [kcal/mol]        2.479 [kJ/mol]       0.00094418 [Eh]
    Vibrational E           4.277 [kcal/mol]       17.894 [kJ/mol]       0.00681534 [Eh]
  Correction E              5.758 [kcal/mol]       24.091 [kJ/mol]       0.00917580 [Eh]
  Total E, Electronic energy at  298.15 [K]                           -460.79065915 [Eh]

  Enthalpy, H_trans = E_trans + k_B * T
    Electronic H            0.000 [kcal/mol]        0.000 [kJ/mol]       0.00000000 [Eh]
    Translational H         1.481 [kcal/mol]        6.197 [kJ/mol]       0.00236046 [Eh]
    Rotational H            0.592 [kcal/mol]        2.479 [kJ/mol]       0.00094418 [Eh]
    Vibrational H           4.277 [kcal/mol]       17.894 [kJ/mol]       0.00681534 [Eh]
  Correction H              6.350 [kcal/mol]       26.570 [kJ/mol]       0.01011999 [Eh]
  Total H, Enthalpy at  298.15 [K]                                    -460.78971497 [Eh]

  Gibbs free energy, G = H - T * S
    Electronic G            0.000 [kcal/mol]        0.000 [kJ/mol]       0.00000000 [Eh]
    Translational G        -9.452 [kcal/mol]      -39.548 [kJ/mol]      -0.01506298 [Eh]
    Rotational G           -1.765 [kcal/mol]       -7.383 [kJ/mol]      -0.00281218 [Eh]
    Vibrational G           4.277 [kcal/mol]       17.894 [kJ/mol]       0.00681534 [Eh]
  Correction G             -6.940 [kcal/mol]      -29.038 [kJ/mol]      -0.01105982 [Eh]
  Total G, Free enthalpy at  298.15 [K]                               -460.81089478 [Eh]

*** Psi4 exiting successfully. Buy a developer a beer!
