                               Psi4 1.3.2 release

  ==> Input File <==

--------------------------------------------------------------------------
memory 144 GB

molecule {
0 1
H 0.0000000000 0.0000000000 0.0000000000
C 0.0000000000 0.0000000000 1.0668000000
N 0.0000000000 0.0000000000 2.2232000000
}

set dynamic_level 1
set basis aug-cc-pV(T+d)Z

optimize("wB97M-V")
frequencies("wB97M-V")
--------------------------------------------------------------------------

    Molecular point group: c2v
  Charge       = 0
  Multiplicity = 1
  Basis Set: AUG-CC-PV(T+D)Z
    Blend: AUG-CC-PV(T+D)Z
  Basis Set: (AUG-CC-PV(T+D)Z AUX)
    Blend: AUG-CC-PVTZ-JKFIT
  @DF-RKS Final Energy:   -93.43006230421142
    Total Energy =                        -93.4300623042114182
    Molecular point group: c2v
  Basis Set: AUG-CC-PV(T+D)Z
    Blend: AUG-CC-PV(T+D)Z
  Basis Set: (AUG-CC-PV(T+D)Z AUX)
    Blend: AUG-CC-PVTZ-JKFIT
  @DF-RKS Final Energy:   -93.43005128302774
    Total Energy =                        -93.4300512830277370
  Basis Set: AUG-CC-PV(T+D)Z
    Blend: AUG-CC-PV(T+D)Z
  Basis Set: (AUG-CC-PV(T+D)Z AUX)
    Blend: AUG-CC-PVTZ-JKFIT
  @DF-RKS Final Energy:   -93.43006301941216
    Total Energy =                        -93.4300630194121453
  Basis Set: AUG-CC-PV(T+D)Z
    Blend: AUG-CC-PV(T+D)Z
  Basis Set: (AUG-CC-PV(T+D)Z AUX)
    Blend: AUG-CC-PVTZ-JKFIT
  @DF-RKS Final Energy:   -93.43000385764084
    Total Energy =                        -93.4300038576408411
  @DF-RKS Final Energy:   -93.43011548998842
    Total Energy =                        -93.4301154899884381
  @DF-RKS Final Energy:   -93.43039803983962
    Total Energy =                        -93.4303980398396021
  @DF-RKS Final Energy:   -93.43039174138424
    Total Energy =                        -93.4303917413842413
  @DF-RKS Final Energy:   -93.43039393563660
    Total Energy =                        -93.4303939356366016
  @DF-RKS Final Energy:   -93.43039427282798
    Total Energy =                        -93.4303942728279821
  @DF-RKS Final Energy:   -93.43039616643475
    Total Energy =                        -93.4303961664347469
  @DF-RKS Final Energy:   -93.43039823921525
    Total Energy =                        -93.4303982392152506
  @DF-RKS Final Energy:   -93.43039310641220
    Total Energy =                        -93.4303931064121969
  @DF-RKS Final Energy:   -93.43039295456661
    Total Energy =                        -93.4303929545666136
  @DF-RKS Final Energy:   -93.43039544364152
    Total Energy =                        -93.4303954436415012
  @DF-RKS Final Energy:   -93.43039539133299
    Total Energy =                        -93.4303953913329934
  **** Optimization is complete! (in 3 steps) ****
    Final optimized geometry and variables:
  @DF-RKS Final Energy:   -93.43039823921508
    Total Energy =                        -93.4303982392150800
  @DF-RKS Final Energy:   -93.43039310641186
    Total Energy =                        -93.4303931064118558
  @DF-RKS Final Energy:   -93.43039295456663
    Total Energy =                        -93.4303929545666278
  @DF-RKS Final Energy:   -93.43039544364133
    Total Energy =                        -93.4303954436413164
  @DF-RKS Final Energy:   -93.43039539133271
    Total Energy =                        -93.4303953913327092
  @DF-RKS Final Energy:   -93.43039823921515
    Total Energy =                        -93.4303982392151653
  @DF-RKS Final Energy:   -93.43039310641223
    Total Energy =                        -93.4303931064122253
  @DF-RKS Final Energy:   -93.43039295456684
    Total Energy =                        -93.4303929545668694
  @DF-RKS Final Energy:   -93.43039544364144
    Total Energy =                        -93.4303954436414443
  @DF-RKS Final Energy:   -93.43039539133302
    Total Energy =                        -93.4303953913330218
  Basis Set: AUG-CC-PV(T+D)Z
    Blend: AUG-CC-PV(T+D)Z
  Basis Set: (AUG-CC-PV(T+D)Z AUX)
    Blend: AUG-CC-PVTZ-JKFIT
  @DF-RKS Final Energy:   -93.43039242346363
    Total Energy =                        -93.4303924234636298
  Basis Set: AUG-CC-PV(T+D)Z
    Blend: AUG-CC-PV(T+D)Z
  Basis Set: (AUG-CC-PV(T+D)Z AUX)
    Blend: AUG-CC-PVTZ-JKFIT
  @DF-RKS Final Energy:   -93.43039260023721
    Total Energy =                        -93.4303926002372265
  Multiplicity = 1
  Basis Set: AUG-CC-PV(T+D)Z
    Blend: AUG-CC-PV(T+D)Z
  Basis Set: (AUG-CC-PV(T+D)Z AUX)
    Blend: AUG-CC-PVTZ-JKFIT
  @DF-RKS Final Energy:   -93.43039796247746
    Total Energy =                        -93.4303979624774712
    Molecular point group: cs

    Geometry (in Angstrom), charge = 0, multiplicity = 1:

       Center              X                  Y                   Z               Mass
    ------------   -----------------  -----------------  -----------------  -----------------
         H            0.000000000000    -0.002247374447    -1.618400963218     1.007825032230
         C            0.000000000000     0.000364380927    -0.553534281869    12.000000000000
         N            0.000000000000    -0.000150510588     0.590832868749    14.003074004430

  Charge       = 0
  Multiplicity = 1
  Basis Set: AUG-CC-PV(T+D)Z
    Blend: AUG-CC-PV(T+D)Z
  Basis Set: (AUG-CC-PV(T+D)Z AUX)
    Blend: AUG-CC-PVTZ-JKFIT

    Orbital Energies [Eh]
    ---------------------

    Doubly Occupied:

       1Ap   -14.531069     2Ap   -10.397441     3Ap    -1.054291
       4Ap    -0.720563     5Ap    -0.497553     1App   -0.471929
       6Ap    -0.471929

  @DF-RKS Final Energy:   -93.43039796214785

   => Energetics <=

    Nuclear Repulsion Energy =             24.0799513856933523
    One-Electron Energy =                -173.1190761628664632
    Two-Electron Energy =                  64.5187512607580658
    DFT Exchange-Correlation Energy =      -8.9683970337643082
    Empirical Dispersion Energy =           0.0000000000000000
    VV10 Nonlocal Energy =                  0.0583725880314894
    Total Energy =                        -93.4303979621478504

  Dipole Moment: [D]
     X:     0.0000      Y:    -0.0024      Z:    -3.0536     Total:     3.0536

  Vibration                       6                   7                   8
  Freq [cm^-1]                 764.8626            765.3180           2232.0681
  Irrep                           B1                  B2                  A1
  Reduced mass [u]              1.3447              1.3447              4.9893
  Force const [mDyne/A]         0.4635              0.4640             14.6456

  Vibration                       9
  Freq [cm^-1]                3463.2353
  Irrep                           A1
  Reduced mass [u]              1.1969
  Force const [mDyne/A]         8.4581

  ==> Thermochemistry Components <==

  Entropy, S
    Electronic S            0.000 [cal/(mol K)]        0.000 [J/(mol K)]       0.00000000 [mEh/K] (multiplicity = 1)
    Translational S        35.816 [cal/(mol K)]      149.856 [J/(mol K)]       0.05707695 [mEh/K] (mol. weight = 27.0109 [u], P = 101325.00 [Pa])
    Rotational S           11.775 [cal/(mol K)]       49.266 [J/(mol K)]       0.01876442 [mEh/K] (symmetry no. = 1)
    Vibrational S           0.476 [cal/(mol K)]        1.991 [J/(mol K)]       0.00075825 [mEh/K]
  Total S                  48.067 [cal/(mol K)]      201.112 [J/(mol K)]       0.07659962 [mEh/K]
  Correction S              0.000 [cal/(mol K)]        0.000 [J/(mol K)]       0.00000000 [mEh/K]

  Constant volume heat capacity, Cv
    Electronic Cv           0.000 [cal/(mol K)]        0.000 [J/(mol K)]       0.00000000 [mEh/K]
    Translational Cv        2.981 [cal/(mol K)]       12.472 [J/(mol K)]       0.00475022 [mEh/K]
    Rotational Cv           1.987 [cal/(mol K)]        8.314 [J/(mol K)]       0.00316681 [mEh/K]
    Vibrational Cv          1.425 [cal/(mol K)]        5.962 [J/(mol K)]       0.00227065 [mEh/K]
  Total Cv                  6.393 [cal/(mol K)]       26.748 [J/(mol K)]       0.01018768 [mEh/K]
  Correction Cv             0.000 [cal/(mol K)]        0.000 [J/(mol K)]       0.00000000 [mEh/K]

  Constant pressure heat capacity, Cp
    Electronic Cp           0.000 [cal/(mol K)]        0.000 [J/(mol K)]       0.00000000 [mEh/K]
    Translational Cp        4.968 [cal/(mol K)]       20.786 [J/(mol K)]       0.00791703 [mEh/K]
    Rotational Cp           1.987 [cal/(mol K)]        8.314 [J/(mol K)]       0.00316681 [mEh/K]
    Vibrational Cp          1.425 [cal/(mol K)]        5.962 [J/(mol K)]       0.00227065 [mEh/K]
  Total Cp                  8.380 [cal/(mol K)]       35.062 [J/(mol K)]       0.01335449 [mEh/K]
  Correction Cp             0.000 [cal/(mol K)]        0.000 [J/(mol K)]       0.00000000 [mEh/K]

  ==> Thermochemistry Energy Analysis <==

  Raw electronic energy, E0
  Total E0, Electronic energy at well bottom at 0 [K]                  -93.43039824 [Eh]

  Zero-point energy, ZPE_vib = Sum_i nu_i / 2
    Electronic ZPE          0.000 [kcal/mol]        0.000 [kJ/mol]       0.00000000 [Eh]
    Translational ZPE       0.000 [kcal/mol]        0.000 [kJ/mol]       0.00000000 [Eh]
    Rotational ZPE          0.000 [kcal/mol]        0.000 [kJ/mol]       0.00000000 [Eh]
    Vibrational ZPE        10.329 [kcal/mol]       43.218 [kJ/mol]       0.01646086 [Eh]        3612.742 [cm^-1]
  Correction ZPE           10.329 [kcal/mol]       43.218 [kJ/mol]       0.01646086 [Eh]        3612.742 [cm^-1]
  Total ZPE, Electronic energy at 0 [K]                                -93.41393738 [Eh]

  Thermal Energy, E (includes ZPE)
    Electronic E            0.000 [kcal/mol]        0.000 [kJ/mol]       0.00000000 [Eh]
    Translational E         0.889 [kcal/mol]        3.718 [kJ/mol]       0.00141628 [Eh]
    Rotational E            0.592 [kcal/mol]        2.479 [kJ/mol]       0.00094418 [Eh]
    Vibrational E          10.441 [kcal/mol]       43.686 [kJ/mol]       0.01663926 [Eh]
  Correction E             11.923 [kcal/mol]       49.884 [kJ/mol]       0.01899972 [Eh]
  Total E, Electronic energy at  298.15 [K]                            -93.41139852 [Eh]

  Enthalpy, H_trans = E_trans + k_B * T
    Electronic H            0.000 [kcal/mol]        0.000 [kJ/mol]       0.00000000 [Eh]
    Translational H         1.481 [kcal/mol]        6.197 [kJ/mol]       0.00236046 [Eh]
    Rotational H            0.592 [kcal/mol]        2.479 [kJ/mol]       0.00094418 [Eh]
    Vibrational H          10.441 [kcal/mol]       43.686 [kJ/mol]       0.01663926 [Eh]
  Correction H             12.515 [kcal/mol]       52.363 [kJ/mol]       0.01994391 [Eh]
  Total H, Enthalpy at  298.15 [K]                                     -93.41045433 [Eh]

  Gibbs free energy, G = H - T * S
    Electronic G            0.000 [kcal/mol]        0.000 [kJ/mol]       0.00000000 [Eh]
    Translational G        -9.197 [kcal/mol]      -38.482 [kJ/mol]      -0.01465703 [Eh]
    Rotational G           -2.918 [kcal/mol]      -12.210 [kJ/mol]      -0.00465043 [Eh]
    Vibrational G          10.299 [kcal/mol]       43.093 [kJ/mol]       0.01641319 [Eh]
  Correction G             -1.816 [kcal/mol]       -7.599 [kJ/mol]      -0.00289427 [Eh]
  Total G, Free enthalpy at  298.15 [K]                                -93.43329251 [Eh]

*** Psi4 exiting successfully. Buy a developer a beer!
