                               Psi4 1.3.2 release

  ==> Input File <==

--------------------------------------------------------------------------
memory 144 GB

molecule {
0 1
F 0.0000000000 0.0000000000 0.0000000000
H 0.0000000000 0.0000000000 0.9157690000
}

set dynamic_level 1
set basis aug-cc-pV(T+d)Z

optimize("wB97M-V")
frequencies("wB97M-V")
--------------------------------------------------------------------------

    Molecular point group: c2v
  Charge       = 0
  Multiplicity = 1
  Basis Set: AUG-CC-PV(T+D)Z
    Blend: AUG-CC-PV(T+D)Z
  Basis Set: (AUG-CC-PV(T+D)Z AUX)
    Blend: AUG-CC-PVTZ-JKFIT
  @DF-RKS Final Energy:  -100.45782314471987
    Total Energy =                       -100.4578231447198675
    Molecular point group: c2v
  Basis Set: AUG-CC-PV(T+D)Z
    Blend: AUG-CC-PV(T+D)Z
  Basis Set: (AUG-CC-PV(T+D)Z AUX)
    Blend: AUG-CC-PVTZ-JKFIT
  @DF-RKS Final Energy:  -100.45785590748633
    Total Energy =                       -100.4578559074863477
  Basis Set: AUG-CC-PV(T+D)Z
    Blend: AUG-CC-PV(T+D)Z
  Basis Set: (AUG-CC-PV(T+D)Z AUX)
    Blend: AUG-CC-PVTZ-JKFIT
  @DF-RKS Final Energy:  -100.45777367724457
    Total Energy =                       -100.4577736772445746
  Basis Set: AUG-CC-PV(T+D)Z
    Blend: AUG-CC-PV(T+D)Z
  Basis Set: (AUG-CC-PV(T+D)Z AUX)
    Blend: AUG-CC-PVTZ-JKFIT
  @DF-RKS Final Energy:  -100.45787427538089
    Total Energy =                       -100.4578742753808882
  @DF-RKS Final Energy:  -100.45786859703576
    Total Energy =                       -100.4578685970357697
  @DF-RKS Final Energy:  -100.45786400201831
    Total Energy =                       -100.4578640020182974
  @DF-RKS Final Energy:  -100.45787443384906
    Total Energy =                       -100.4578744338490424
  @DF-RKS Final Energy:  -100.45786653495418
    Total Energy =                       -100.4578665349541780
  @DF-RKS Final Energy:  -100.45786642384965
    Total Energy =                       -100.4578664238496657
  **** Optimization is complete! (in 3 steps) ****
    Final optimized geometry and variables:
  @DF-RKS Final Energy:  -100.45787443384911
    Total Energy =                       -100.4578744338491276
  @DF-RKS Final Energy:  -100.45786653494108
    Total Energy =                       -100.4578665349410613
  Basis Set: AUG-CC-PV(T+D)Z
    Blend: AUG-CC-PV(T+D)Z
  Basis Set: (AUG-CC-PV(T+D)Z AUX)
    Blend: AUG-CC-PVTZ-JKFIT
  @DF-RKS Final Energy:  -100.45786642371193
    Total Energy =                       -100.4578664237119199
  Basis Set: AUG-CC-PV(T+D)Z
    Blend: AUG-CC-PV(T+D)Z
  Basis Set: (AUG-CC-PV(T+D)Z AUX)
    Blend: AUG-CC-PVTZ-JKFIT
  @DF-RKS Final Energy:  -100.45787443384930
    Total Energy =                       -100.4578744338492839
  Multiplicity = 1
  Basis Set: AUG-CC-PV(T+D)Z
    Blend: AUG-CC-PV(T+D)Z
  Basis Set: (AUG-CC-PV(T+D)Z AUX)
    Blend: AUG-CC-PVTZ-JKFIT
  @DF-RKS Final Energy:  -100.45786653494106
    Total Energy =                       -100.4578665349410613
    Molecular point group: c2v

    Geometry (in Angstrom), charge = 0, multiplicity = 1:

       Center              X                  Y                   Z               Mass
    ------------   -----------------  -----------------  -----------------  -----------------
         F            0.000000000000     0.000000000000    -0.046339258069    18.998403162730
         H            0.000000000000     0.000000000000     0.873536456142     1.007825032230

  Charge       = 0
  Multiplicity = 1
  Basis Set: AUG-CC-PV(T+D)Z
    Blend: AUG-CC-PV(T+D)Z
  Basis Set: (AUG-CC-PV(T+D)Z AUX)
    Blend: AUG-CC-PVTZ-JKFIT

    Orbital Energies [Eh]
    ---------------------

    Doubly Occupied:

       1A1   -24.904651     2A1    -1.338634     3A1    -0.665432
       1B2    -0.531108     1B1    -0.531108

  @DF-RKS Final Energy:  -100.45786642371192

   => Energetics <=

    Nuclear Repulsion Energy =              5.1774330188870854
    One-Electron Energy =                -150.3883896372730646
    Two-Electron Energy =                  52.6148839970946369
    DFT Exchange-Correlation Energy =      -7.9051753914222065
    Empirical Dispersion Energy =           0.0000000000000000
    VV10 Nonlocal Energy =                  0.0433815890016200
    Total Energy =                       -100.4578664237119199

  Dipole Moment: [D]
     X:     0.0000      Y:     0.0000      Z:     1.7986     Total:     1.7986

  Vibration                       6
  Freq [cm^-1]                4100.6843
  Irrep                           A1
  Reduced mass [u]              1.0583
  Force const [mDyne/A]        10.4852

  ==> Thermochemistry Components <==

  Entropy, S
    Electronic S            0.000 [cal/(mol K)]        0.000 [J/(mol K)]       0.00000000 [mEh/K] (multiplicity = 1)
    Translational S        34.921 [cal/(mol K)]      146.112 [J/(mol K)]       0.05565095 [mEh/K] (mol. weight = 20.0062 [u], P = 101325.00 [Pa])
    Rotational S            6.566 [cal/(mol K)]       27.471 [J/(mol K)]       0.01046296 [mEh/K] (symmetry no. = 1)
    Vibrational S           0.000 [cal/(mol K)]        0.000 [J/(mol K)]       0.00000000 [mEh/K]
  Total S                  41.487 [cal/(mol K)]      173.582 [J/(mol K)]       0.06611391 [mEh/K]
  Correction S              0.000 [cal/(mol K)]        0.000 [J/(mol K)]       0.00000000 [mEh/K]

  Constant volume heat capacity, Cv
    Electronic Cv           0.000 [cal/(mol K)]        0.000 [J/(mol K)]       0.00000000 [mEh/K]
    Translational Cv        2.981 [cal/(mol K)]       12.472 [J/(mol K)]       0.00475022 [mEh/K]
    Rotational Cv           1.987 [cal/(mol K)]        8.314 [J/(mol K)]       0.00316681 [mEh/K]
    Vibrational Cv          0.000 [cal/(mol K)]        0.000 [J/(mol K)]       0.00000000 [mEh/K]
  Total Cv                  4.968 [cal/(mol K)]       20.786 [J/(mol K)]       0.00791703 [mEh/K]
  Correction Cv             0.000 [cal/(mol K)]        0.000 [J/(mol K)]       0.00000000 [mEh/K]

  Constant pressure heat capacity, Cp
    Electronic Cp           0.000 [cal/(mol K)]        0.000 [J/(mol K)]       0.00000000 [mEh/K]
    Translational Cp        4.968 [cal/(mol K)]       20.786 [J/(mol K)]       0.00791703 [mEh/K]
    Rotational Cp           1.987 [cal/(mol K)]        8.314 [J/(mol K)]       0.00316681 [mEh/K]
    Vibrational Cp          0.000 [cal/(mol K)]        0.000 [J/(mol K)]       0.00000000 [mEh/K]
  Total Cp                  6.955 [cal/(mol K)]       29.101 [J/(mol K)]       0.01108384 [mEh/K]
  Correction Cp             0.000 [cal/(mol K)]        0.000 [J/(mol K)]       0.00000000 [mEh/K]

  ==> Thermochemistry Energy Analysis <==

  Raw electronic energy, E0
  Total E0, Electronic energy at well bottom at 0 [K]                 -100.45787443 [Eh]

  Zero-point energy, ZPE_vib = Sum_i nu_i / 2
    Electronic ZPE          0.000 [kcal/mol]        0.000 [kJ/mol]       0.00000000 [Eh]
    Translational ZPE       0.000 [kcal/mol]        0.000 [kJ/mol]       0.00000000 [Eh]
    Rotational ZPE          0.000 [kcal/mol]        0.000 [kJ/mol]       0.00000000 [Eh]
    Vibrational ZPE         5.862 [kcal/mol]       24.528 [kJ/mol]       0.00934205 [Eh]        2050.342 [cm^-1]
  Correction ZPE            5.862 [kcal/mol]       24.528 [kJ/mol]       0.00934205 [Eh]        2050.342 [cm^-1]
  Total ZPE, Electronic energy at 0 [K]                               -100.44853239 [Eh]

  Thermal Energy, E (includes ZPE)
    Electronic E            0.000 [kcal/mol]        0.000 [kJ/mol]       0.00000000 [Eh]
    Translational E         0.889 [kcal/mol]        3.718 [kJ/mol]       0.00141628 [Eh]
    Rotational E            0.592 [kcal/mol]        2.479 [kJ/mol]       0.00094418 [Eh]
    Vibrational E           5.862 [kcal/mol]       24.528 [kJ/mol]       0.00934205 [Eh]
  Correction E              7.343 [kcal/mol]       30.725 [kJ/mol]       0.01170251 [Eh]
  Total E, Electronic energy at  298.15 [K]                           -100.44617193 [Eh]

  Enthalpy, H_trans = E_trans + k_B * T
    Electronic H            0.000 [kcal/mol]        0.000 [kJ/mol]       0.00000000 [Eh]
    Translational H         1.481 [kcal/mol]        6.197 [kJ/mol]       0.00236046 [Eh]
    Rotational H            0.592 [kcal/mol]        2.479 [kJ/mol]       0.00094418 [Eh]
    Vibrational H           5.862 [kcal/mol]       24.528 [kJ/mol]       0.00934205 [Eh]
  Correction H              7.936 [kcal/mol]       33.204 [kJ/mol]       0.01264669 [Eh]
  Total H, Enthalpy at  298.15 [K]                                    -100.44522774 [Eh]

  Gibbs free energy, G = H - T * S
    Electronic G            0.000 [kcal/mol]        0.000 [kJ/mol]       0.00000000 [Eh]
    Translational G        -8.931 [kcal/mol]      -37.366 [kJ/mol]      -0.01423187 [Eh]
    Rotational G           -1.365 [kcal/mol]       -5.711 [kJ/mol]      -0.00217535 [Eh]
    Vibrational G           5.862 [kcal/mol]       24.528 [kJ/mol]       0.00934205 [Eh]
  Correction G             -4.433 [kcal/mol]      -18.550 [kJ/mol]      -0.00706517 [Eh]
  Total G, Free enthalpy at  298.15 [K]                               -100.46493961 [Eh]

*** Psi4 exiting successfully. Buy a developer a beer!
