                               Psi4 1.3.2 release

  ==> Input File <==

--------------------------------------------------------------------------
memory 144 GB

molecule {
0 1
N 0.0000000000 0.0000000000 0.0000000000
H 0.0000000000 0.0000000000 1.0535284100
O 1.1513717966 0.0000000000 -0.3743228181
}

set dynamic_level 1
set basis aug-cc-pV(T+d)Z

optimize("wB97M-V")
frequencies("wB97M-V")
--------------------------------------------------------------------------

    Molecular point group: cs
  Charge       = 0
  Multiplicity = 1
  Basis Set: AUG-CC-PV(T+D)Z
    Blend: AUG-CC-PV(T+D)Z
  Basis Set: (AUG-CC-PV(T+D)Z AUX)
    Blend: AUG-CC-PVTZ-JKFIT
  @DF-RKS Final Energy:  -130.48973558593653
    Total Energy =                       -130.4897355859365575
    Molecular point group: cs
  Basis Set: AUG-CC-PV(T+D)Z
    Blend: AUG-CC-PV(T+D)Z
  Basis Set: (AUG-CC-PV(T+D)Z AUX)
    Blend: AUG-CC-PVTZ-JKFIT
  @DF-RKS Final Energy:  -130.48977409846890
    Total Energy =                       -130.4897740984689278
  Basis Set: AUG-CC-PV(T+D)Z
    Blend: AUG-CC-PV(T+D)Z
  Basis Set: (AUG-CC-PV(T+D)Z AUX)
    Blend: AUG-CC-PVTZ-JKFIT
  @DF-RKS Final Energy:  -130.48969462128358
    Total Energy =                       -130.4896946212836042
  Basis Set: AUG-CC-PV(T+D)Z
    Blend: AUG-CC-PV(T+D)Z
  Basis Set: (AUG-CC-PV(T+D)Z AUX)
    Blend: AUG-CC-PVTZ-JKFIT
  @DF-RKS Final Energy:  -130.48974213633571
    Total Energy =                       -130.4897421363357068
  @DF-RKS Final Energy:  -130.48972374305063
    Total Energy =                       -130.4897237430506607
  @DF-RKS Final Energy:  -130.48974040919984
    Total Energy =                       -130.4897404091998396
  @DF-RKS Final Energy:  -130.48972525475315
    Total Energy =                       -130.4897252547531536
  @DF-RKS Final Energy:  -130.49004155235519
    Total Energy =                       -130.4900415523551942
  @DF-RKS Final Energy:  -130.49005023447862
    Total Energy =                       -130.4900502344786162
  @DF-RKS Final Energy:  -130.49003021573404
    Total Energy =                       -130.4900302157340661
  @DF-RKS Final Energy:  -130.49004017801181
    Total Energy =                       -130.4900401780118102
  @DF-RKS Final Energy:  -130.49003764863838
    Total Energy =                       -130.4900376486383777
  @DF-RKS Final Energy:  -130.49003081783394
    Total Energy =                       -130.4900308178339401
  @DF-RKS Final Energy:  -130.49004671529471
    Total Energy =                       -130.4900467152947101
  @DF-RKS Final Energy:  -130.49005676169017
    Total Energy =                       -130.4900567616901697
  @DF-RKS Final Energy:  -130.49005118061353
    Total Energy =                       -130.4900511806135341
  @DF-RKS Final Energy:  -130.49005961827675
    Total Energy =                       -130.4900596182767458
  @DF-RKS Final Energy:  -130.49006139573254
    Total Energy =                       -130.4900613957325390
  @DF-RKS Final Energy:  -130.49004696978648
    Total Energy =                       -130.4900469697864764
  @DF-RKS Final Energy:  -130.49005582518629
    Total Energy =                       -130.4900558251862890
  **** Optimization is complete! (in 4 steps) ****
    Final optimized geometry and variables:
  @DF-RKS Final Energy:  -130.49006999736307
    Total Energy =                       -130.4900699973630367
  @DF-RKS Final Energy:  -130.49006881775412
    Total Energy =                       -130.4900688177540928
  @DF-RKS Final Energy:  -130.49006846572178
    Total Energy =                       -130.4900684657217766
  @DF-RKS Final Energy:  -130.49006720133082
    Total Energy =                       -130.4900672013308451
  @DF-RKS Final Energy:  -130.49006762581266
    Total Energy =                       -130.4900676258126566
  @DF-RKS Final Energy:  -130.49006665991260
    Total Energy =                       -130.4900666599125998
  @DF-RKS Final Energy:  -130.49006783108459
    Total Energy =                       -130.4900678310845592
  @DF-RKS Final Energy:  -130.49006999736338
    Total Energy =                       -130.4900699973633778
  @DF-RKS Final Energy:  -130.49006881775409
    Total Energy =                       -130.4900688177540928
  @DF-RKS Final Energy:  -130.49006846572195
    Total Energy =                       -130.4900684657219472
  @DF-RKS Final Energy:  -130.49006720133107
    Total Energy =                       -130.4900672013310725
  @DF-RKS Final Energy:  -130.49006762581286
    Total Energy =                       -130.4900676258128271
  @DF-RKS Final Energy:  -130.49006665991308
    Total Energy =                       -130.4900666599131114
  @DF-RKS Final Energy:  -130.49006783108493
    Total Energy =                       -130.4900678310849287
  @DF-RKS Final Energy:  -130.49006626997794
    Total Energy =                       -130.4900662699779161
  @DF-RKS Final Energy:  -130.49006619856294
    Total Energy =                       -130.4900661985629426
  Basis Set: AUG-CC-PV(T+D)Z
    Blend: AUG-CC-PV(T+D)Z
  Basis Set: (AUG-CC-PV(T+D)Z AUX)
    Blend: AUG-CC-PVTZ-JKFIT
  @DF-RKS Final Energy:  -130.49006585778625
    Total Energy =                       -130.4900658577862202
  Basis Set: AUG-CC-PV(T+D)Z
    Blend: AUG-CC-PV(T+D)Z
  Basis Set: (AUG-CC-PV(T+D)Z AUX)
    Blend: AUG-CC-PVTZ-JKFIT
  @DF-RKS Final Energy:  -130.49006503343165
    Total Energy =                       -130.4900650334316481
  Multiplicity = 1
  Basis Set: AUG-CC-PV(T+D)Z
    Blend: AUG-CC-PV(T+D)Z
  Basis Set: (AUG-CC-PV(T+D)Z AUX)
    Blend: AUG-CC-PVTZ-JKFIT
  @DF-RKS Final Energy:  -130.49006835497229
    Total Energy =                       -130.4900683549722942
    Molecular point group: cs

    Geometry (in Angstrom), charge = 0, multiplicity = 1:

       Center              X                  Y                   Z               Mass
    ------------   -----------------  -----------------  -----------------  -----------------
         N            0.586152660154     0.156171815155     0.000000000000    14.003074004430
         H            0.590307811765     1.211829922218     0.000000000000     1.007825032230
         O           -0.550354051698    -0.213080100551     0.000000000000    15.994914619570

  Charge       = 0
  Multiplicity = 1
  Basis Set: AUG-CC-PV(T+D)Z
    Blend: AUG-CC-PV(T+D)Z
  Basis Set: (AUG-CC-PV(T+D)Z AUX)
    Blend: AUG-CC-PVTZ-JKFIT

    Orbital Energies [Eh]
    ---------------------

    Doubly Occupied:

       1Ap   -19.424204     2Ap   -14.638225     3Ap    -1.318982
       4Ap    -0.852119     5Ap    -0.653778     1App   -0.578093
       6Ap    -0.573458     7Ap    -0.354683

  @DF-RKS Final Energy:  -130.49006675905611

   => Energetics <=

    Nuclear Repulsion Energy =             30.6268238397854731
    One-Electron Energy =                -238.3261443439075720
    Two-Electron Energy =                  88.5098714252331717
    DFT Exchange-Correlation Energy =     -11.3675553294630909
    Empirical Dispersion Energy =           0.0000000000000000
    VV10 Nonlocal Energy =                  0.0669376492959178
    Total Energy =                       -130.4900667590561341

  Dipole Moment: [D]
     X:     0.4301      Y:     1.6290      Z:     0.0000     Total:     1.6848

  Vibration                       7                   8                   9
  Freq [cm^-1]                1573.4976           1710.7249           2956.8030
  Irrep                           Ap                  Ap                  Ap
  Reduced mass [u]              1.2140              9.6871              1.0755
  Force const [mDyne/A]         1.7709             16.7035              5.5398

  ==> Thermochemistry Components <==

  Entropy, S
    Electronic S            0.000 [cal/(mol K)]        0.000 [J/(mol K)]       0.00000000 [mEh/K] (multiplicity = 1)
    Translational S        36.227 [cal/(mol K)]      151.576 [J/(mol K)]       0.05773217 [mEh/K] (mol. weight = 31.0058 [u], P = 101325.00 [Pa])
    Rotational S           16.442 [cal/(mol K)]       68.795 [J/(mol K)]       0.02620246 [mEh/K] (symmetry no. = 1)
    Vibrational S           0.013 [cal/(mol K)]        0.056 [J/(mol K)]       0.00002137 [mEh/K]
  Total S                  52.683 [cal/(mol K)]      220.426 [J/(mol K)]       0.08395600 [mEh/K]
  Correction S              0.000 [cal/(mol K)]        0.000 [J/(mol K)]       0.00000000 [mEh/K]

  Constant volume heat capacity, Cv
    Electronic Cv           0.000 [cal/(mol K)]        0.000 [J/(mol K)]       0.00000000 [mEh/K]
    Translational Cv        2.981 [cal/(mol K)]       12.472 [J/(mol K)]       0.00475022 [mEh/K]
    Rotational Cv           2.981 [cal/(mol K)]       12.472 [J/(mol K)]       0.00475022 [mEh/K]
    Vibrational Cv          0.093 [cal/(mol K)]        0.390 [J/(mol K)]       0.00014861 [mEh/K]
  Total Cv                  6.055 [cal/(mol K)]       25.334 [J/(mol K)]       0.00964904 [mEh/K]
  Correction Cv             0.000 [cal/(mol K)]        0.000 [J/(mol K)]       0.00000000 [mEh/K]

  Constant pressure heat capacity, Cp
    Electronic Cp           0.000 [cal/(mol K)]        0.000 [J/(mol K)]       0.00000000 [mEh/K]
    Translational Cp        4.968 [cal/(mol K)]       20.786 [J/(mol K)]       0.00791703 [mEh/K]
    Rotational Cp           2.981 [cal/(mol K)]       12.472 [J/(mol K)]       0.00475022 [mEh/K]
    Vibrational Cp          0.093 [cal/(mol K)]        0.390 [J/(mol K)]       0.00014861 [mEh/K]
  Total Cp                  8.042 [cal/(mol K)]       33.648 [J/(mol K)]       0.01281585 [mEh/K]
  Correction Cp             0.000 [cal/(mol K)]        0.000 [J/(mol K)]       0.00000000 [mEh/K]

  ==> Thermochemistry Energy Analysis <==

  Raw electronic energy, E0
  Total E0, Electronic energy at well bottom at 0 [K]                 -130.49007000 [Eh]

  Zero-point energy, ZPE_vib = Sum_i nu_i / 2
    Electronic ZPE          0.000 [kcal/mol]        0.000 [kJ/mol]       0.00000000 [Eh]
    Translational ZPE       0.000 [kcal/mol]        0.000 [kJ/mol]       0.00000000 [Eh]
    Rotational ZPE          0.000 [kcal/mol]        0.000 [kJ/mol]       0.00000000 [Eh]
    Vibrational ZPE         8.922 [kcal/mol]       37.330 [kJ/mol]       0.01421810 [Eh]        3120.513 [cm^-1]
  Correction ZPE            8.922 [kcal/mol]       37.330 [kJ/mol]       0.01421810 [Eh]        3120.513 [cm^-1]
  Total ZPE, Electronic energy at 0 [K]                               -130.47585190 [Eh]

  Thermal Energy, E (includes ZPE)
    Electronic E            0.000 [kcal/mol]        0.000 [kJ/mol]       0.00000000 [Eh]
    Translational E         0.889 [kcal/mol]        3.718 [kJ/mol]       0.00141628 [Eh]
    Rotational E            0.889 [kcal/mol]        3.718 [kJ/mol]       0.00141628 [Eh]
    Vibrational E           8.926 [kcal/mol]       37.344 [kJ/mol]       0.01422375 [Eh]
  Correction E             10.703 [kcal/mol]       44.781 [kJ/mol]       0.01705630 [Eh]
  Total E, Electronic energy at  298.15 [K]                           -130.47301369 [Eh]

  Enthalpy, H_trans = E_trans + k_B * T
    Electronic H            0.000 [kcal/mol]        0.000 [kJ/mol]       0.00000000 [Eh]
    Translational H         1.481 [kcal/mol]        6.197 [kJ/mol]       0.00236046 [Eh]
    Rotational H            0.889 [kcal/mol]        3.718 [kJ/mol]       0.00141628 [Eh]
    Vibrational H           8.926 [kcal/mol]       37.344 [kJ/mol]       0.01422375 [Eh]
  Correction H             11.295 [kcal/mol]       47.260 [kJ/mol]       0.01800049 [Eh]
  Total H, Enthalpy at  298.15 [K]                                    -130.47206951 [Eh]

  Gibbs free energy, G = H - T * S
    Electronic G            0.000 [kcal/mol]        0.000 [kJ/mol]       0.00000000 [Eh]
    Translational G        -9.320 [kcal/mol]      -38.995 [kJ/mol]      -0.01485238 [Eh]
    Rotational G           -4.014 [kcal/mol]      -16.793 [kJ/mol]      -0.00639599 [Eh]
    Vibrational G           8.922 [kcal/mol]       37.328 [kJ/mol]       0.01421738 [Eh]
  Correction G             -4.412 [kcal/mol]      -18.460 [kJ/mol]      -0.00703099 [Eh]
  Total G, Free enthalpy at  298.15 [K]                               -130.49710099 [Eh]

*** Psi4 exiting successfully. Buy a developer a beer!
