                               Psi4 1.3.2 release

  ==> Input File <==

--------------------------------------------------------------------------
memory 144 GB

molecule {
0 1
O 0.0000000000 0.0000000000 0.0000000000
H 0.0000000000 0.0000000000 0.9638997500
Cl 1.6530447720 0.0000000000 -0.3711121967
}

set dynamic_level 1
set basis aug-cc-pV(T+d)Z

optimize("wB97M-V")
frequencies("wB97M-V")
--------------------------------------------------------------------------

    Molecular point group: cs
  Charge       = 0
  Multiplicity = 1
  Basis Set: AUG-CC-PV(T+D)Z
    Blend: AUG-CC-PV(T+D)Z
  Basis Set: (AUG-CC-PV(T+D)Z AUX)
    Blend: AUG-CC-PVTZ-JKFIT
  @DF-RKS Final Energy:  -535.96903177204774
    Total Energy =                       -535.9690317720479698
    Molecular point group: cs
  Basis Set: AUG-CC-PV(T+D)Z
    Blend: AUG-CC-PV(T+D)Z
  Basis Set: (AUG-CC-PV(T+D)Z AUX)
    Blend: AUG-CC-PVTZ-JKFIT
  @DF-RKS Final Energy:  -535.96904104386613
    Total Energy =                       -535.9690410438661274
  Basis Set: AUG-CC-PV(T+D)Z
    Blend: AUG-CC-PV(T+D)Z
  Basis Set: (AUG-CC-PV(T+D)Z AUX)
    Blend: AUG-CC-PVTZ-JKFIT
  @DF-RKS Final Energy:  -535.96902190325807
    Total Energy =                       -535.9690219032580671
  Basis Set: AUG-CC-PV(T+D)Z
    Blend: AUG-CC-PV(T+D)Z
  Basis Set: (AUG-CC-PV(T+D)Z AUX)
    Blend: AUG-CC-PVTZ-JKFIT
  @DF-RKS Final Energy:  -535.96902968976144
    Total Energy =                       -535.9690296897614417
  @DF-RKS Final Energy:  -535.96902448434162
    Total Energy =                       -535.9690244843416167
  @DF-RKS Final Energy:  -535.96902047825665
    Total Energy =                       -535.9690204782565388
  @DF-RKS Final Energy:  -535.96903711586344
    Total Energy =                       -535.9690371158633297
  @DF-RKS Final Energy:  -535.96910006407802
    Total Energy =                       -535.9691000640780203
  @DF-RKS Final Energy:  -535.96910325052886
    Total Energy =                       -535.9691032505288604
  @DF-RKS Final Energy:  -535.96909625886565
    Total Energy =                       -535.9690962588657612
  @DF-RKS Final Energy:  -535.96909494289207
    Total Energy =                       -535.9690949428920703
  @DF-RKS Final Energy:  -535.96909601061157
    Total Energy =                       -535.9690960106115654
  @DF-RKS Final Energy:  -535.96909692957149
    Total Energy =                       -535.9690969295714922
  @DF-RKS Final Energy:  -535.96909717720325
    Total Energy =                       -535.9690971772032526
  @DF-RKS Final Energy:  -535.96910996982933
    Total Energy =                       -535.9691099698293328
  @DF-RKS Final Energy:  -535.96910948760797
    Total Energy =                       -535.9691094876080797
  @DF-RKS Final Energy:  -535.96910982393217
    Total Energy =                       -535.9691098239322855
  @DF-RKS Final Energy:  -535.96910465310771
    Total Energy =                       -535.9691046531078200
  @DF-RKS Final Energy:  -535.96910615216188
    Total Energy =                       -535.9691061521619986
  @DF-RKS Final Energy:  -535.96910690252992
    Total Energy =                       -535.9691069025299157
  **** Optimization is complete! (in 3 steps) ****
    Final optimized geometry and variables:
  @DF-RKS Final Energy:  -535.96910996982990
    Total Energy =                       -535.9691099698299013
  @DF-RKS Final Energy:  -535.96910948809796
    Total Energy =                       -535.9691094880979563
  @DF-RKS Final Energy:  -535.96910982393217
    Total Energy =                       -535.9691098239320581
  @DF-RKS Final Energy:  -535.96910465310430
    Total Energy =                       -535.9691046531042957
  @DF-RKS Final Energy:  -535.96910615177978
    Total Energy =                       -535.9691061517797834
  @DF-RKS Final Energy:  -535.96910690224183
    Total Energy =                       -535.9691069022419470
  @DF-RKS Final Energy:  -535.96910697657779
    Total Energy =                       -535.9691069765779048
  @DF-RKS Final Energy:  -535.96910996983001
    Total Energy =                       -535.9691099698300150
  @DF-RKS Final Energy:  -535.96910948809796
    Total Energy =                       -535.9691094880979563
  @DF-RKS Final Energy:  -535.96910982393217
    Total Energy =                       -535.9691098239321718
  @DF-RKS Final Energy:  -535.96910465310430
    Total Energy =                       -535.9691046531042957
  @DF-RKS Final Energy:  -535.96910615178012
    Total Energy =                       -535.9691061517801245
  @DF-RKS Final Energy:  -535.96910690224229
    Total Energy =                       -535.9691069022424017
  @DF-RKS Final Energy:  -535.96910697657779
    Total Energy =                       -535.9691069765776774
  @DF-RKS Final Energy:  -535.96910599759713
    Total Energy =                       -535.9691059975971257
  @DF-RKS Final Energy:  -535.96910416883691
    Total Energy =                       -535.9691041688369069
  Basis Set: AUG-CC-PV(T+D)Z
    Blend: AUG-CC-PV(T+D)Z
  Basis Set: (AUG-CC-PV(T+D)Z AUX)
    Blend: AUG-CC-PVTZ-JKFIT
  @DF-RKS Final Energy:  -535.96910706755068
    Total Energy =                       -535.9691070675506808
  Basis Set: AUG-CC-PV(T+D)Z
    Blend: AUG-CC-PV(T+D)Z
  Basis Set: (AUG-CC-PV(T+D)Z AUX)
    Blend: AUG-CC-PVTZ-JKFIT
  @DF-RKS Final Energy:  -535.96910664852669
    Total Energy =                       -535.9691066485268038
  Multiplicity = 1
  Basis Set: AUG-CC-PV(T+D)Z
    Blend: AUG-CC-PV(T+D)Z
  Basis Set: (AUG-CC-PV(T+D)Z AUX)
    Blend: AUG-CC-PVTZ-JKFIT
  @DF-RKS Final Energy:  -535.96910906981361
    Total Energy =                       -535.9691090698137259
    Molecular point group: cs

    Geometry (in Angstrom), charge = 0, multiplicity = 1:

       Center              X                  Y                   Z               Mass
    ------------   -----------------  -----------------  -----------------  -----------------
         O            1.103219135206     0.232471737479     0.000000000000    15.994914619570
         H            1.113771169623     1.198052721785     0.000000000000     1.007825032230
         CL          -0.536717132526    -0.140862302809     0.000000000000    34.968852682000

  Charge       = 0
  Multiplicity = 1
  Basis Set: AUG-CC-PV(T+D)Z
    Blend: AUG-CC-PV(T+D)Z
  Basis Set: (AUG-CC-PV(T+D)Z AUX)
    Blend: AUG-CC-PVTZ-JKFIT

    Orbital Energies [Eh]
    ---------------------

    Doubly Occupied:

       1Ap  -101.940501     2Ap   -19.411019     3Ap    -9.693053
       4Ap    -7.401799     5Ap    -7.388247     1App   -7.387915
       6Ap    -1.207597     7Ap    -0.924541     8Ap    -0.646388
       9Ap    -0.554595     2App   -0.529107    10Ap    -0.421991
       3App   -0.389398

  @DF-RKS Final Energy:  -535.96910745901255

   => Energetics <=

    Nuclear Repulsion Energy =             51.4068252712628819
    One-Electron Energy =                -841.2848022452404848
    Two-Electron Energy =                 282.0685836037215495
    DFT Exchange-Correlation Energy =     -28.2683854460355271
    Empirical Dispersion Energy =           0.0000000000000000
    VV10 Nonlocal Energy =                  0.1086713572791077
    Total Energy =                       -535.9691074590124344

  Dipole Moment: [D]
     X:    -0.0143      Y:     1.5267      Z:     0.0000     Total:     1.5268

  Vibration                       7                   8                   9
  Freq [cm^-1]                 789.9941           1277.4120           3803.8205
  Irrep                           Ap                  Ap                  Ap
  Reduced mass [u]             17.5496              1.0733              1.0678
  Force const [mDyne/A]         6.4530              1.0319              9.1029

  ==> Thermochemistry Components <==

  Entropy, S
    Electronic S            0.000 [cal/(mol K)]        0.000 [J/(mol K)]       0.00000000 [mEh/K] (multiplicity = 1)
    Translational S        37.767 [cal/(mol K)]      158.018 [J/(mol K)]       0.06018576 [mEh/K] (mol. weight = 51.9716 [u], P = 101325.00 [Pa])
    Rotational S           18.370 [cal/(mol K)]       76.858 [J/(mol K)]       0.02927383 [mEh/K] (symmetry no. = 1)
    Vibrational S           0.246 [cal/(mol K)]        1.028 [J/(mol K)]       0.00039139 [mEh/K]
  Total S                  56.382 [cal/(mol K)]      235.904 [J/(mol K)]       0.08985098 [mEh/K]
  Correction S              0.000 [cal/(mol K)]        0.000 [J/(mol K)]       0.00000000 [mEh/K]

  Constant volume heat capacity, Cv
    Electronic Cv           0.000 [cal/(mol K)]        0.000 [J/(mol K)]       0.00000000 [mEh/K]
    Translational Cv        2.981 [cal/(mol K)]       12.472 [J/(mol K)]       0.00475022 [mEh/K]
    Rotational Cv           2.981 [cal/(mol K)]       12.472 [J/(mol K)]       0.00475022 [mEh/K]
    Vibrational Cv          0.827 [cal/(mol K)]        3.460 [J/(mol K)]       0.00131769 [mEh/K]
  Total Cv                  6.788 [cal/(mol K)]       28.403 [J/(mol K)]       0.01081812 [mEh/K]
  Correction Cv             0.000 [cal/(mol K)]        0.000 [J/(mol K)]       0.00000000 [mEh/K]

  Constant pressure heat capacity, Cp
    Electronic Cp           0.000 [cal/(mol K)]        0.000 [J/(mol K)]       0.00000000 [mEh/K]
    Translational Cp        4.968 [cal/(mol K)]       20.786 [J/(mol K)]       0.00791703 [mEh/K]
    Rotational Cp           2.981 [cal/(mol K)]       12.472 [J/(mol K)]       0.00475022 [mEh/K]
    Vibrational Cp          0.827 [cal/(mol K)]        3.460 [J/(mol K)]       0.00131769 [mEh/K]
  Total Cp                  8.776 [cal/(mol K)]       36.717 [J/(mol K)]       0.01398493 [mEh/K]
  Correction Cp             0.000 [cal/(mol K)]        0.000 [J/(mol K)]       0.00000000 [mEh/K]

  ==> Thermochemistry Energy Analysis <==

  Raw electronic energy, E0
  Total E0, Electronic energy at well bottom at 0 [K]                 -535.96910997 [Eh]

  Zero-point energy, ZPE_vib = Sum_i nu_i / 2
    Electronic ZPE          0.000 [kcal/mol]        0.000 [kJ/mol]       0.00000000 [Eh]
    Translational ZPE       0.000 [kcal/mol]        0.000 [kJ/mol]       0.00000000 [Eh]
    Rotational ZPE          0.000 [kcal/mol]        0.000 [kJ/mol]       0.00000000 [Eh]
    Vibrational ZPE         8.393 [kcal/mol]       35.118 [kJ/mol]       0.01337564 [Eh]        2935.613 [cm^-1]
  Correction ZPE            8.393 [kcal/mol]       35.118 [kJ/mol]       0.01337564 [Eh]        2935.613 [cm^-1]
  Total ZPE, Electronic energy at 0 [K]                               -535.95573433 [Eh]

  Thermal Energy, E (includes ZPE)
    Electronic E            0.000 [kcal/mol]        0.000 [kJ/mol]       0.00000000 [Eh]
    Translational E         0.889 [kcal/mol]        3.718 [kJ/mol]       0.00141628 [Eh]
    Rotational E            0.889 [kcal/mol]        3.718 [kJ/mol]       0.00141628 [Eh]
    Vibrational E           8.452 [kcal/mol]       35.363 [kJ/mol]       0.01346924 [Eh]
  Correction E             10.230 [kcal/mol]       42.800 [kJ/mol]       0.01630180 [Eh]
  Total E, Electronic energy at  298.15 [K]                           -535.95280817 [Eh]

  Enthalpy, H_trans = E_trans + k_B * T
    Electronic H            0.000 [kcal/mol]        0.000 [kJ/mol]       0.00000000 [Eh]
    Translational H         1.481 [kcal/mol]        6.197 [kJ/mol]       0.00236046 [Eh]
    Rotational H            0.889 [kcal/mol]        3.718 [kJ/mol]       0.00141628 [Eh]
    Vibrational H           8.452 [kcal/mol]       35.363 [kJ/mol]       0.01346924 [Eh]
  Correction H             10.822 [kcal/mol]       45.279 [kJ/mol]       0.01724598 [Eh]
  Total H, Enthalpy at  298.15 [K]                                    -535.95186399 [Eh]

  Gibbs free energy, G = H - T * S
    Electronic G            0.000 [kcal/mol]        0.000 [kJ/mol]       0.00000000 [Eh]
    Translational G        -9.779 [kcal/mol]      -40.916 [kJ/mol]      -0.01558392 [Eh]
    Rotational G           -4.588 [kcal/mol]      -19.197 [kJ/mol]      -0.00731172 [Eh]
    Vibrational G           8.379 [kcal/mol]       35.057 [kJ/mol]       0.01335255 [Eh]
  Correction G             -5.988 [kcal/mol]      -25.055 [kJ/mol]      -0.00954309 [Eh]
  Total G, Free enthalpy at  298.15 [K]                               -535.97865306 [Eh]

*** Psi4 exiting successfully. Buy a developer a beer!
