                               Psi4 1.3.2 release

  ==> Input File <==

--------------------------------------------------------------------------
memory 144 GB

molecule {
0 1
N 0.0000000000 0.0000000000 0.0000000000
N 0.0000000000 0.0000000000 1.1003000000
}

set dynamic_level 1
set basis aug-cc-pV(T+d)Z

optimize("wB97M-V")
frequencies("wB97M-V")
--------------------------------------------------------------------------

    Molecular point group: d2h
  Charge       = 0
  Multiplicity = 1
  Basis Set: AUG-CC-PV(T+D)Z
    Blend: AUG-CC-PV(T+D)Z
  Basis Set: (AUG-CC-PV(T+D)Z AUX)
    Blend: AUG-CC-PVTZ-JKFIT
  @DF-RKS Final Energy:  -109.54845072606058
    Total Energy =                       -109.5484507260605653
    Molecular point group: d2h
  Basis Set: AUG-CC-PV(T+D)Z
    Blend: AUG-CC-PV(T+D)Z
  Basis Set: (AUG-CC-PV(T+D)Z AUX)
    Blend: AUG-CC-PVTZ-JKFIT
  @DF-RKS Final Energy:  -109.54838966164748
    Total Energy =                       -109.5483896616474908
  Basis Set: AUG-CC-PV(T+D)Z
    Blend: AUG-CC-PV(T+D)Z
  Basis Set: (AUG-CC-PV(T+D)Z AUX)
    Blend: AUG-CC-PVTZ-JKFIT
  @DF-RKS Final Energy:  -109.54850636168277
    Total Energy =                       -109.5485063616827688
  Basis Set: AUG-CC-PV(T+D)Z
    Blend: AUG-CC-PV(T+D)Z
  Basis Set: (AUG-CC-PV(T+D)Z AUX)
    Blend: AUG-CC-PVTZ-JKFIT
  @DF-RKS Final Energy:  -109.54875320910925
    Total Energy =                       -109.5487532091092504
  @DF-RKS Final Energy:  -109.54874391617962
    Total Energy =                       -109.5487439161796033
  @DF-RKS Final Energy:  -109.54875671120257
    Total Energy =                       -109.5487567112025715
  @DF-RKS Final Energy:  -109.54875674004407
    Total Energy =                       -109.5487567400440696
  @DF-RKS Final Energy:  -109.54875405437602
    Total Energy =                       -109.5487540543760190
  @DF-RKS Final Energy:  -109.54875358395012
    Total Energy =                       -109.5487535839501163
  **** Optimization is complete! (in 3 steps) ****
    Final optimized geometry and variables:
  @DF-RKS Final Energy:  -109.54875674004427
    Total Energy =                       -109.5487567400442686
  @DF-RKS Final Energy:  -109.54875405437596
    Total Energy =                       -109.5487540543759621
  Basis Set: AUG-CC-PV(T+D)Z
    Blend: AUG-CC-PV(T+D)Z
  Basis Set: (AUG-CC-PV(T+D)Z AUX)
    Blend: AUG-CC-PVTZ-JKFIT
  @DF-RKS Final Energy:  -109.54875358395002
    Total Energy =                       -109.5487535839500168
  Basis Set: AUG-CC-PV(T+D)Z
    Blend: AUG-CC-PV(T+D)Z
  Basis Set: (AUG-CC-PV(T+D)Z AUX)
    Blend: AUG-CC-PVTZ-JKFIT
  @DF-RKS Final Energy:  -109.54875674004413
    Total Energy =                       -109.5487567400441264
  Multiplicity = 1
  Basis Set: AUG-CC-PV(T+D)Z
    Blend: AUG-CC-PV(T+D)Z
  Basis Set: (AUG-CC-PV(T+D)Z AUX)
    Blend: AUG-CC-PVTZ-JKFIT
  @DF-RKS Final Energy:  -109.54875405437615
    Total Energy =                       -109.5487540543761469
    Molecular point group: d2h

    Geometry (in Angstrom), charge = 0, multiplicity = 1:

       Center              X                  Y                   Z               Mass
    ------------   -----------------  -----------------  -----------------  -----------------
         N            0.000000000000     0.000000000000    -0.544450089660    14.003074004430
         N            0.000000000000     0.000000000000     0.544450089660    14.003074004430

  Charge       = 0
  Multiplicity = 1
  Basis Set: AUG-CC-PV(T+D)Z
    Blend: AUG-CC-PV(T+D)Z
  Basis Set: (AUG-CC-PV(T+D)Z AUX)
    Blend: AUG-CC-PVTZ-JKFIT

    Orbital Energies [Eh]
    ---------------------

    Doubly Occupied:

       1Ag   -14.608569     1B1u  -14.606737     2Ag    -1.259792
       2B1u   -0.669036     1B2u   -0.576375     1B3u   -0.576375
       3Ag    -0.544655

  @DF-RKS Final Energy:  -109.54875358395009

   => Energetics <=

    Nuclear Repulsion Energy =             23.8127275716009557
    One-Electron Energy =                -194.8276640213821338
    Two-Electron Energy =                  71.3008090558301717
    DFT Exchange-Correlation Energy =      -9.8935524395724883
    Empirical Dispersion Energy =           0.0000000000000000
    VV10 Nonlocal Energy =                  0.0589262495734146
    Total Energy =                       -109.5487535839500737

  Dipole Moment: [D]
     X:     0.0000      Y:     0.0000      Z:     0.0000     Total:     0.0000

  Vibration                       6
  Freq [cm^-1]                2484.8845
  Irrep                           Ag
  Reduced mass [u]             14.0031
  Force const [mDyne/A]        50.9432

  ==> Thermochemistry Components <==

  Entropy, S
    Electronic S            0.000 [cal/(mol K)]        0.000 [J/(mol K)]       0.00000000 [mEh/K] (multiplicity = 1)
    Translational S        35.924 [cal/(mol K)]      150.307 [J/(mol K)]       0.05724883 [mEh/K] (mol. weight = 28.0061 [u], P = 101325.00 [Pa])
    Rotational S            9.805 [cal/(mol K)]       41.025 [J/(mol K)]       0.01562553 [mEh/K] (symmetry no. = 2)
    Vibrational S           0.000 [cal/(mol K)]        0.001 [J/(mol K)]       0.00000025 [mEh/K]
  Total S                  45.730 [cal/(mol K)]      191.332 [J/(mol K)]       0.07287462 [mEh/K]
  Correction S              0.000 [cal/(mol K)]        0.000 [J/(mol K)]       0.00000000 [mEh/K]

  Constant volume heat capacity, Cv
    Electronic Cv           0.000 [cal/(mol K)]        0.000 [J/(mol K)]       0.00000000 [mEh/K]
    Translational Cv        2.981 [cal/(mol K)]       12.472 [J/(mol K)]       0.00475022 [mEh/K]
    Rotational Cv           1.987 [cal/(mol K)]        8.314 [J/(mol K)]       0.00316681 [mEh/K]
    Vibrational Cv          0.002 [cal/(mol K)]        0.007 [J/(mol K)]       0.00000282 [mEh/K]
  Total Cv                  4.970 [cal/(mol K)]       20.794 [J/(mol K)]       0.00791985 [mEh/K]
  Correction Cv             0.000 [cal/(mol K)]        0.000 [J/(mol K)]       0.00000000 [mEh/K]

  Constant pressure heat capacity, Cp
    Electronic Cp           0.000 [cal/(mol K)]        0.000 [J/(mol K)]       0.00000000 [mEh/K]
    Translational Cp        4.968 [cal/(mol K)]       20.786 [J/(mol K)]       0.00791703 [mEh/K]
    Rotational Cp           1.987 [cal/(mol K)]        8.314 [J/(mol K)]       0.00316681 [mEh/K]
    Vibrational Cp          0.002 [cal/(mol K)]        0.007 [J/(mol K)]       0.00000282 [mEh/K]
  Total Cp                  6.957 [cal/(mol K)]       29.108 [J/(mol K)]       0.01108666 [mEh/K]
  Correction Cp             0.000 [cal/(mol K)]        0.000 [J/(mol K)]       0.00000000 [mEh/K]

  ==> Thermochemistry Energy Analysis <==

  Raw electronic energy, E0
  Total E0, Electronic energy at well bottom at 0 [K]                 -109.54875674 [Eh]

  Zero-point energy, ZPE_vib = Sum_i nu_i / 2
    Electronic ZPE          0.000 [kcal/mol]        0.000 [kJ/mol]       0.00000000 [Eh]
    Translational ZPE       0.000 [kcal/mol]        0.000 [kJ/mol]       0.00000000 [Eh]
    Rotational ZPE          0.000 [kcal/mol]        0.000 [kJ/mol]       0.00000000 [Eh]
    Vibrational ZPE         3.552 [kcal/mol]       14.863 [kJ/mol]       0.00566098 [Eh]        1242.442 [cm^-1]
  Correction ZPE            3.552 [kcal/mol]       14.863 [kJ/mol]       0.00566098 [Eh]        1242.442 [cm^-1]
  Total ZPE, Electronic energy at 0 [K]                               -109.54309576 [Eh]

  Thermal Energy, E (includes ZPE)
    Electronic E            0.000 [kcal/mol]        0.000 [kJ/mol]       0.00000000 [Eh]
    Translational E         0.889 [kcal/mol]        3.718 [kJ/mol]       0.00141628 [Eh]
    Rotational E            0.592 [kcal/mol]        2.479 [kJ/mol]       0.00094418 [Eh]
    Vibrational E           3.552 [kcal/mol]       14.863 [kJ/mol]       0.00566105 [Eh]
  Correction E              5.034 [kcal/mol]       21.060 [kJ/mol]       0.00802151 [Eh]
  Total E, Electronic energy at  298.15 [K]                           -109.54073523 [Eh]

  Enthalpy, H_trans = E_trans + k_B * T
    Electronic H            0.000 [kcal/mol]        0.000 [kJ/mol]       0.00000000 [Eh]
    Translational H         1.481 [kcal/mol]        6.197 [kJ/mol]       0.00236046 [Eh]
    Rotational H            0.592 [kcal/mol]        2.479 [kJ/mol]       0.00094418 [Eh]
    Vibrational H           3.552 [kcal/mol]       14.863 [kJ/mol]       0.00566105 [Eh]
  Correction H              5.626 [kcal/mol]       23.539 [kJ/mol]       0.00896570 [Eh]
  Total H, Enthalpy at  298.15 [K]                                    -109.53979104 [Eh]

  Gibbs free energy, G = H - T * S
    Electronic G            0.000 [kcal/mol]        0.000 [kJ/mol]       0.00000000 [Eh]
    Translational G        -9.230 [kcal/mol]      -38.617 [kJ/mol]      -0.01470828 [Eh]
    Rotational G           -2.331 [kcal/mol]       -9.753 [kJ/mol]      -0.00371457 [Eh]
    Vibrational G           3.552 [kcal/mol]       14.863 [kJ/mol]       0.00566098 [Eh]
  Correction G             -8.008 [kcal/mol]      -33.506 [kJ/mol]      -0.01276187 [Eh]
  Total G, Free enthalpy at  298.15 [K]                               -109.56151861 [Eh]

*** Psi4 exiting successfully. Buy a developer a beer!
