                               Psi4 1.3.2 release

  ==> Input File <==

--------------------------------------------------------------------------
memory 144 GB

molecule {
0 1
N 0.0000000000 0.0000000000 0.0000000000
H 0.0000000000 0.0000000000 1.0124000000
H 0.9722998620 0.0000000000 -0.2821112163
H -0.3756003142 0.8968229622 -0.2821112163
}

set dynamic_level 1
set basis aug-cc-pV(T+d)Z

optimize("wB97M-V")
frequencies("wB97M-V")
--------------------------------------------------------------------------

    Molecular point group: cs
  Charge       = 0
  Multiplicity = 1
  Basis Set: AUG-CC-PV(T+D)Z
    Blend: AUG-CC-PV(T+D)Z
  Basis Set: (AUG-CC-PV(T+D)Z AUX)
    Blend: AUG-CC-PVTZ-JKFIT
  @DF-RKS Final Energy:   -56.55109611995054
    Total Energy =                        -56.5510961199505431
    Molecular point group: cs
  Basis Set: AUG-CC-PV(T+D)Z
    Blend: AUG-CC-PV(T+D)Z
  Basis Set: (AUG-CC-PV(T+D)Z AUX)
    Blend: AUG-CC-PVTZ-JKFIT
  @DF-RKS Final Energy:   -56.55108872901565
    Total Energy =                        -56.5510887290156461
  Basis Set: AUG-CC-PV(T+D)Z
    Blend: AUG-CC-PV(T+D)Z
  Basis Set: (AUG-CC-PV(T+D)Z AUX)
    Blend: AUG-CC-PVTZ-JKFIT
  @DF-RKS Final Energy:   -56.55109807130184
    Total Energy =                        -56.5510980713018441
  Basis Set: AUG-CC-PV(T+D)Z
    Blend: AUG-CC-PV(T+D)Z
  Basis Set: (AUG-CC-PV(T+D)Z AUX)
    Blend: AUG-CC-PVTZ-JKFIT
  @DF-RKS Final Energy:   -56.55108861043297
    Total Energy =                        -56.5510886104329700
  @DF-RKS Final Energy:   -56.55109853980738
    Total Energy =                        -56.5510985398073700
  @DF-RKS Final Energy:   -56.55108637767960
    Total Energy =                        -56.5510863776796100
  @DF-RKS Final Energy:   -56.55109733319789
    Total Energy =                        -56.5510973331978803
  @DF-RKS Final Energy:   -56.55108637519933
    Total Energy =                        -56.5510863751993327
  @DF-RKS Final Energy:   -56.55109733466141
    Total Energy =                        -56.5510973346614136
  @DF-RKS Final Energy:   -56.55113098790088
    Total Energy =                        -56.5511309879008834
  @DF-RKS Final Energy:   -56.55112524150453
    Total Energy =                        -56.5511252415045362
  @DF-RKS Final Energy:   -56.55113134565834
    Total Energy =                        -56.5511313456583409
  @DF-RKS Final Energy:   -56.55112523622491
    Total Energy =                        -56.5511252362249053
  @DF-RKS Final Energy:   -56.55113173927946
    Total Energy =                        -56.5511317392794552
  @DF-RKS Final Energy:   -56.55112970286510
    Total Energy =                        -56.5511297028651043
  @DF-RKS Final Energy:   -56.55112374640223
    Total Energy =                        -56.5511237464022258
  @DF-RKS Final Energy:   -56.55112970274467
    Total Energy =                        -56.5511297027446602
  @DF-RKS Final Energy:   -56.55112374647244
    Total Energy =                        -56.5511237464724417
  @DF-RKS Final Energy:   -56.55113605763439
    Total Energy =                        -56.5511360576343947
  @DF-RKS Final Energy:   -56.55113288214859
    Total Energy =                        -56.5511328821485861
  **** Optimization is complete! (in 3 steps) ****
    Final optimized geometry and variables:
  @DF-RKS Final Energy:   -56.55113265744117
    Total Energy =                        -56.5511326574411584
  @DF-RKS Final Energy:   -56.55113087925029
    Total Energy =                        -56.5511308792502945
  @DF-RKS Final Energy:   -56.55113265971668
    Total Energy =                        -56.5511326597166857
  @DF-RKS Final Energy:   -56.55113087603410
    Total Energy =                        -56.5511308760341009
  @DF-RKS Final Energy:   -56.55113491095007
    Total Energy =                        -56.5511349109500756
  @DF-RKS Final Energy:   -56.55113290600804
    Total Energy =                        -56.5511329060080357
  @DF-RKS Final Energy:   -56.55112777692155
    Total Energy =                        -56.5511277769215610
  @DF-RKS Final Energy:   -56.55112855472183
    Total Energy =                        -56.5511285547218350
  @DF-RKS Final Energy:   -56.55113291332606
    Total Energy =                        -56.5511329133260645
  @DF-RKS Final Energy:   -56.55113369115992
    Total Energy =                        -56.5511336911599187
  @DF-RKS Final Energy:   -56.55113272575184
    Total Energy =                        -56.5511327257518417
  @DF-RKS Final Energy:   -56.55113357490016
    Total Energy =                        -56.5511335749001489
  @DF-RKS Final Energy:   -56.55112826040889
    Total Energy =                        -56.5511282604088805
  @DF-RKS Final Energy:   -56.55112902137202
    Total Energy =                        -56.5511290213720201
  @DF-RKS Final Energy:   -56.55112387154227
    Total Energy =                        -56.5511238715422664
  @DF-RKS Final Energy:   -56.55112740204148
    Total Energy =                        -56.5511274020414803
  Basis Set: AUG-CC-PV(T+D)Z
    Blend: AUG-CC-PV(T+D)Z
  Basis Set: (AUG-CC-PV(T+D)Z AUX)
    Blend: AUG-CC-PVTZ-JKFIT
  @DF-RKS Final Energy:   -56.55113193792646
    Total Energy =                        -56.5511319379264634
  Basis Set: AUG-CC-PV(T+D)Z
    Blend: AUG-CC-PV(T+D)Z
  Basis Set: (AUG-CC-PV(T+D)Z AUX)
    Blend: AUG-CC-PVTZ-JKFIT
  @DF-RKS Final Energy:   -56.55113351061162
    Total Energy =                        -56.5511335106116206
  Multiplicity = 1
  Basis Set: AUG-CC-PV(T+D)Z
    Blend: AUG-CC-PV(T+D)Z
  Basis Set: (AUG-CC-PV(T+D)Z AUX)
    Blend: AUG-CC-PVTZ-JKFIT
  @DF-RKS Final Energy:   -56.55113421371099
    Total Energy =                        -56.5511342137109949
    Molecular point group: c1

    Geometry (in Angstrom), charge = 0, multiplicity = 1:

       Center              X                  Y                   Z               Mass
    ------------   -----------------  -----------------  -----------------  -----------------
         N           -0.042682719269    -0.051293392553    -0.000265127472    14.003074004430
         H            0.558435076081    -0.061520650809     0.814399359669     1.007825032230
         H            0.559373136437    -0.064513804908    -0.813465172658     1.007825032230
         H           -0.524759560697     0.838722818170     0.002749586944     1.007825032230

  Charge       = 0
  Multiplicity = 1
  Basis Set: AUG-CC-PV(T+D)Z
    Blend: AUG-CC-PV(T+D)Z
  Basis Set: (AUG-CC-PV(T+D)Z AUX)
    Blend: AUG-CC-PVTZ-JKFIT

    Orbital Energies [Eh]
    ---------------------

    Doubly Occupied:

       1A    -14.483031     2A     -0.975994     3A     -0.567585
       4A     -0.566428     5A     -0.374817

  @DF-RKS Final Energy:   -56.55113421442399

   => Energetics <=

    Nuclear Repulsion Energy =             11.9540843013329212
    One-Electron Energy =                 -99.6354831020981919
    Two-Electron Energy =                  36.6460916821263609
    DFT Exchange-Correlation Energy =      -5.5576540577207911
    Empirical Dispersion Energy =           0.0000000000000000
    VV10 Nonlocal Energy =                  0.0418269619357086
    Total Energy =                        -56.5511342144239819

  Dipole Moment: [D]
     X:     0.9721      Y:     1.1682      Z:     0.0024     Total:     1.5198

  Vibration                       7                   8                   9
  Freq [cm^-1]                1026.1770           1297.8648           1659.3266
  Irrep                           Ap                 App                  Ap
  Reduced mass [u]              1.1814              1.0553              1.0667
  Force const [mDyne/A]         0.7330              1.0474              1.7305

  Vibration                       10                  11                  12
  Freq [cm^-1]                3496.5794           3522.6138           3616.2952
  Irrep                           Ap                 App                  Ap
  Reduced mass [u]              1.0262              1.1020              1.0899
  Force const [mDyne/A]         7.3918              8.0569              8.3976

  ==> Thermochemistry Components <==

  Entropy, S
    Electronic S            0.000 [cal/(mol K)]        0.000 [J/(mol K)]       0.00000000 [mEh/K] (multiplicity = 1)
    Translational S        34.441 [cal/(mol K)]      144.100 [J/(mol K)]       0.05488488 [mEh/K] (mol. weight = 17.0265 [u], P = 101325.00 [Pa])
    Rotational S           13.612 [cal/(mol K)]       56.951 [J/(mol K)]       0.02169162 [mEh/K] (symmetry no. = 1)
    Vibrational S           0.118 [cal/(mol K)]        0.492 [J/(mol K)]       0.00018753 [mEh/K]
  Total S                  48.170 [cal/(mol K)]      201.544 [J/(mol K)]       0.07676403 [mEh/K]
  Correction S              0.000 [cal/(mol K)]        0.000 [J/(mol K)]       0.00000000 [mEh/K]

  Constant volume heat capacity, Cv
    Electronic Cv           0.000 [cal/(mol K)]        0.000 [J/(mol K)]       0.00000000 [mEh/K]
    Translational Cv        2.981 [cal/(mol K)]       12.472 [J/(mol K)]       0.00475022 [mEh/K]
    Rotational Cv           2.981 [cal/(mol K)]       12.472 [J/(mol K)]       0.00475022 [mEh/K]
    Vibrational Cv          0.541 [cal/(mol K)]        2.264 [J/(mol K)]       0.00086218 [mEh/K]
  Total Cv                  6.503 [cal/(mol K)]       27.207 [J/(mol K)]       0.01036261 [mEh/K]
  Correction Cv             0.000 [cal/(mol K)]        0.000 [J/(mol K)]       0.00000000 [mEh/K]

  Constant pressure heat capacity, Cp
    Electronic Cp           0.000 [cal/(mol K)]        0.000 [J/(mol K)]       0.00000000 [mEh/K]
    Translational Cp        4.968 [cal/(mol K)]       20.786 [J/(mol K)]       0.00791703 [mEh/K]
    Rotational Cp           2.981 [cal/(mol K)]       12.472 [J/(mol K)]       0.00475022 [mEh/K]
    Vibrational Cp          0.541 [cal/(mol K)]        2.264 [J/(mol K)]       0.00086218 [mEh/K]
  Total Cp                  8.490 [cal/(mol K)]       35.521 [J/(mol K)]       0.01352942 [mEh/K]
  Correction Cp             0.000 [cal/(mol K)]        0.000 [J/(mol K)]       0.00000000 [mEh/K]

  ==> Thermochemistry Energy Analysis <==

  Raw electronic energy, E0
  Total E0, Electronic energy at well bottom at 0 [K]                  -56.55113606 [Eh]

  Zero-point energy, ZPE_vib = Sum_i nu_i / 2
    Electronic ZPE          0.000 [kcal/mol]        0.000 [kJ/mol]       0.00000000 [Eh]
    Translational ZPE       0.000 [kcal/mol]        0.000 [kJ/mol]       0.00000000 [Eh]
    Rotational ZPE          0.000 [kcal/mol]        0.000 [kJ/mol]       0.00000000 [Eh]
    Vibrational ZPE        20.899 [kcal/mol]       87.440 [kJ/mol]       0.03330421 [Eh]        7309.428 [cm^-1]
  Correction ZPE           20.899 [kcal/mol]       87.440 [kJ/mol]       0.03330421 [Eh]        7309.428 [cm^-1]
  Total ZPE, Electronic energy at 0 [K]                                -56.51783185 [Eh]

  Thermal Energy, E (includes ZPE)
    Electronic E            0.000 [kcal/mol]        0.000 [kJ/mol]       0.00000000 [Eh]
    Translational E         0.889 [kcal/mol]        3.718 [kJ/mol]       0.00141628 [Eh]
    Rotational E            0.889 [kcal/mol]        3.718 [kJ/mol]       0.00141628 [Eh]
    Vibrational E          20.928 [kcal/mol]       87.564 [kJ/mol]       0.03335130 [Eh]
  Correction E             22.706 [kcal/mol]       95.001 [kJ/mol]       0.03618386 [Eh]
  Total E, Electronic energy at  298.15 [K]                            -56.51495220 [Eh]

  Enthalpy, H_trans = E_trans + k_B * T
    Electronic H            0.000 [kcal/mol]        0.000 [kJ/mol]       0.00000000 [Eh]
    Translational H         1.481 [kcal/mol]        6.197 [kJ/mol]       0.00236046 [Eh]
    Rotational H            0.889 [kcal/mol]        3.718 [kJ/mol]       0.00141628 [Eh]
    Vibrational H          20.928 [kcal/mol]       87.564 [kJ/mol]       0.03335130 [Eh]
  Correction H             23.298 [kcal/mol]       97.480 [kJ/mol]       0.03712804 [Eh]
  Total H, Enthalpy at  298.15 [K]                                     -56.51400802 [Eh]

  Gibbs free energy, G = H - T * S
    Electronic G            0.000 [kcal/mol]        0.000 [kJ/mol]       0.00000000 [Eh]
    Translational G        -8.787 [kcal/mol]      -36.766 [kJ/mol]      -0.01400347 [Eh]
    Rotational G           -3.170 [kcal/mol]      -13.262 [kJ/mol]      -0.00505108 [Eh]
    Vibrational G          20.893 [kcal/mol]       87.417 [kJ/mol]       0.03329539 [Eh]
  Correction G              8.936 [kcal/mol]       37.389 [kJ/mol]       0.01424085 [Eh]
  Total G, Free enthalpy at  298.15 [K]                                -56.53689521 [Eh]

*** Psi4 exiting successfully. Buy a developer a beer!
