                               Psi4 1.3.2 release

  ==> Input File <==

--------------------------------------------------------------------------
memory 144 GB

molecule {
0 1
N 0.0000000000 0.0000000000 0.0000000000
N 0.0000000000 0.0000000000 1.1291000000
O 0.0000000000 -0.0000000000 2.3161000000
}

set dynamic_level 1
set basis aug-cc-pV(T+d)Z

optimize("wB97M-V")
frequencies("wB97M-V")
--------------------------------------------------------------------------

    Molecular point group: c2v
  Charge       = 0
  Multiplicity = 1
  Basis Set: AUG-CC-PV(T+D)Z
    Blend: AUG-CC-PV(T+D)Z
  Basis Set: (AUG-CC-PV(T+D)Z AUX)
    Blend: AUG-CC-PVTZ-JKFIT
  @DF-RKS Final Energy:  -184.68897515453787
    Total Energy =                       -184.6889751545378999
    Molecular point group: c2v
  Basis Set: AUG-CC-PV(T+D)Z
    Blend: AUG-CC-PV(T+D)Z
  Basis Set: (AUG-CC-PV(T+D)Z AUX)
    Blend: AUG-CC-PVTZ-JKFIT
  @DF-RKS Final Energy:  -184.68891871141628
    Total Energy =                       -184.6889187114162780
  Basis Set: AUG-CC-PV(T+D)Z
    Blend: AUG-CC-PV(T+D)Z
  Basis Set: (AUG-CC-PV(T+D)Z AUX)
    Blend: AUG-CC-PVTZ-JKFIT
  @DF-RKS Final Energy:  -184.68902844436940
    Total Energy =                       -184.6890284443693986
  Basis Set: AUG-CC-PV(T+D)Z
    Blend: AUG-CC-PV(T+D)Z
  Basis Set: (AUG-CC-PV(T+D)Z AUX)
    Blend: AUG-CC-PVTZ-JKFIT
  @DF-RKS Final Energy:  -184.68899305925137
    Total Energy =                       -184.6889930592513451
  @DF-RKS Final Energy:  -184.68895394212430
    Total Energy =                       -184.6889539421243001
  @DF-RKS Final Energy:  -184.68944069304663
    Total Energy =                       -184.6894406930466346
  @DF-RKS Final Energy:  -184.68943126688521
    Total Energy =                       -184.6894312668852081
  @DF-RKS Final Energy:  -184.68944666687128
    Total Energy =                       -184.6894466668713051
  @DF-RKS Final Energy:  -184.68944327692594
    Total Energy =                       -184.6894432769259140
  @DF-RKS Final Energy:  -184.68943458845143
    Total Energy =                       -184.6894345884514337
  @DF-RKS Final Energy:  -184.68944917893748
    Total Energy =                       -184.6894491789375081
  @DF-RKS Final Energy:  -184.68944765554647
    Total Energy =                       -184.6894476555464735
  @DF-RKS Final Energy:  -184.68944717380123
    Total Energy =                       -184.6894471738011987
  @DF-RKS Final Energy:  -184.68944786697102
    Total Energy =                       -184.6894478669710224
  @DF-RKS Final Energy:  -184.68944695074865
    Total Energy =                       -184.6894469507486463
  @DF-RKS Final Energy:  -184.68944923982028
    Total Energy =                       -184.6894492398202772
  @DF-RKS Final Energy:  -184.68944743159713
    Total Energy =                       -184.6894474315971308
  @DF-RKS Final Energy:  -184.68944753436273
    Total Energy =                       -184.6894475343627278
  @DF-RKS Final Energy:  -184.68944766550987
    Total Energy =                       -184.6894476655098742
  @DF-RKS Final Energy:  -184.68944728183061
    Total Energy =                       -184.6894472818306099
  **** Optimization is complete! (in 4 steps) ****
    Final optimized geometry and variables:
  @DF-RKS Final Energy:  -184.68944924547509
    Total Energy =                       -184.6894492454750889
  @DF-RKS Final Energy:  -184.68944742898714
    Total Energy =                       -184.6894474289871653
  @DF-RKS Final Energy:  -184.68944754266138
    Total Energy =                       -184.6894475426613837
  @DF-RKS Final Energy:  -184.68944766309937
    Total Energy =                       -184.6894476630993438
  @DF-RKS Final Energy:  -184.68944727686664
    Total Energy =                       -184.6894472768666446
  @DF-RKS Final Energy:  -184.68944924547503
    Total Energy =                       -184.6894492454750321
  @DF-RKS Final Energy:  -184.68944742898708
    Total Energy =                       -184.6894474289870800
  @DF-RKS Final Energy:  -184.68944754266158
    Total Energy =                       -184.6894475426615827
  @DF-RKS Final Energy:  -184.68944766309929
    Total Energy =                       -184.6894476630993154
  @DF-RKS Final Energy:  -184.68944727686679
    Total Energy =                       -184.6894472768667868
  Basis Set: AUG-CC-PV(T+D)Z
    Blend: AUG-CC-PV(T+D)Z
  Basis Set: (AUG-CC-PV(T+D)Z AUX)
    Blend: AUG-CC-PVTZ-JKFIT
  @DF-RKS Final Energy:  -184.68944741849788
    Total Energy =                       -184.6894474184978776
  Basis Set: AUG-CC-PV(T+D)Z
    Blend: AUG-CC-PV(T+D)Z
  Basis Set: (AUG-CC-PV(T+D)Z AUX)
    Blend: AUG-CC-PVTZ-JKFIT
  @DF-RKS Final Energy:  -184.68944768150939
    Total Energy =                       -184.6894476815094208
  Multiplicity = 1
  Basis Set: AUG-CC-PV(T+D)Z
    Blend: AUG-CC-PV(T+D)Z
  Basis Set: (AUG-CC-PV(T+D)Z AUX)
    Blend: AUG-CC-PVTZ-JKFIT
  @DF-RKS Final Energy:  -184.68944904769899
    Total Energy =                       -184.6894490476989859
    Molecular point group: cs

    Geometry (in Angstrom), charge = 0, multiplicity = 1:

       Center              X                  Y                   Z               Mass
    ------------   -----------------  -----------------  -----------------  -----------------
         N            0.000000000000    -0.000300133577    -1.190595294414    14.003074004430
         N            0.000000000000     0.000582953418    -0.075306089658    14.003074004430
         O            0.000000000000    -0.000247600394     1.108259167685    15.994914619570

  Charge       = 0
  Multiplicity = 1
  Basis Set: AUG-CC-PV(T+D)Z
    Blend: AUG-CC-PV(T+D)Z
  Basis Set: (AUG-CC-PV(T+D)Z AUX)
    Blend: AUG-CC-PVTZ-JKFIT

    Orbital Energies [Eh]
    ---------------------

    Doubly Occupied:

       1Ap   -19.432193     2Ap   -14.743634     3Ap   -14.608904
       4Ap    -1.381580     5Ap    -1.224483     6Ap    -0.721826
       1App   -0.686145     7Ap    -0.686145     8Ap    -0.595373
       2App   -0.445119     9Ap    -0.445119

  @DF-RKS Final Energy:  -184.68944904551779

   => Energetics <=

    Nuclear Repulsion Energy =             61.1778579287740669
    One-Electron Energy =                -371.6372398345084207
    Two-Electron Energy =                 141.8593604664050929
    DFT Exchange-Correlation Energy =     -16.1806292121082507
    Empirical Dispersion Energy =           0.0000000000000000
    VV10 Nonlocal Energy =                  0.0912016059197248
    Total Energy =                       -184.6894490455177618

  Dipole Moment: [D]
     X:     0.0000      Y:     0.0010      Z:    -0.2089     Total:     0.2090

  Vibration                       6                   7                   8
  Freq [cm^-1]                 646.6006            650.1564           1338.6615
  Irrep                           B1                  B2                  A1
  Reduced mass [u]             14.2517             14.2517             15.1306
  Force const [mDyne/A]         3.5107              3.5494             15.9752

  Vibration                       9
  Freq [cm^-1]                2383.5197
  Irrep                           A1
  Reduced mass [u]             14.0698
  Force const [mDyne/A]        47.0951

  ==> Thermochemistry Components <==

  Entropy, S
    Electronic S            0.000 [cal/(mol K)]        0.000 [J/(mol K)]       0.00000000 [mEh/K] (multiplicity = 1)
    Translational S        37.271 [cal/(mol K)]      155.941 [J/(mol K)]       0.05939493 [mEh/K] (mol. weight = 44.0011 [u], P = 101325.00 [Pa])
    Rotational S           14.282 [cal/(mol K)]       59.758 [J/(mol K)]       0.02276046 [mEh/K] (symmetry no. = 1)
    Vibrational S           0.771 [cal/(mol K)]        3.224 [J/(mol K)]       0.00122794 [mEh/K]
  Total S                  52.324 [cal/(mol K)]      218.923 [J/(mol K)]       0.08338333 [mEh/K]
  Correction S              0.000 [cal/(mol K)]        0.000 [J/(mol K)]       0.00000000 [mEh/K]

  Constant volume heat capacity, Cv
    Electronic Cv           0.000 [cal/(mol K)]        0.000 [J/(mol K)]       0.00000000 [mEh/K]
    Translational Cv        2.981 [cal/(mol K)]       12.472 [J/(mol K)]       0.00475022 [mEh/K]
    Rotational Cv           1.987 [cal/(mol K)]        8.314 [J/(mol K)]       0.00316681 [mEh/K]
    Vibrational Cv          1.995 [cal/(mol K)]        8.348 [J/(mol K)]       0.00317960 [mEh/K]
  Total Cv                  6.963 [cal/(mol K)]       29.134 [J/(mol K)]       0.01109662 [mEh/K]
  Correction Cv             0.000 [cal/(mol K)]        0.000 [J/(mol K)]       0.00000000 [mEh/K]

  Constant pressure heat capacity, Cp
    Electronic Cp           0.000 [cal/(mol K)]        0.000 [J/(mol K)]       0.00000000 [mEh/K]
    Translational Cp        4.968 [cal/(mol K)]       20.786 [J/(mol K)]       0.00791703 [mEh/K]
    Rotational Cp           1.987 [cal/(mol K)]        8.314 [J/(mol K)]       0.00316681 [mEh/K]
    Vibrational Cp          1.995 [cal/(mol K)]        8.348 [J/(mol K)]       0.00317960 [mEh/K]
  Total Cp                  8.950 [cal/(mol K)]       37.449 [J/(mol K)]       0.01426343 [mEh/K]
  Correction Cp             0.000 [cal/(mol K)]        0.000 [J/(mol K)]       0.00000000 [mEh/K]

  ==> Thermochemistry Energy Analysis <==

  Raw electronic energy, E0
  Total E0, Electronic energy at well bottom at 0 [K]                 -184.68944925 [Eh]

  Zero-point energy, ZPE_vib = Sum_i nu_i / 2
    Electronic ZPE          0.000 [kcal/mol]        0.000 [kJ/mol]       0.00000000 [Eh]
    Translational ZPE       0.000 [kcal/mol]        0.000 [kJ/mol]       0.00000000 [Eh]
    Rotational ZPE          0.000 [kcal/mol]        0.000 [kJ/mol]       0.00000000 [Eh]
    Vibrational ZPE         7.175 [kcal/mol]       30.020 [kJ/mol]       0.01143398 [Eh]        2509.469 [cm^-1]
  Correction ZPE            7.175 [kcal/mol]       30.020 [kJ/mol]       0.01143398 [Eh]        2509.469 [cm^-1]
  Total ZPE, Electronic energy at 0 [K]                               -184.67801526 [Eh]

  Thermal Energy, E (includes ZPE)
    Electronic E            0.000 [kcal/mol]        0.000 [kJ/mol]       0.00000000 [Eh]
    Translational E         0.889 [kcal/mol]        3.718 [kJ/mol]       0.00141628 [Eh]
    Rotational E            0.592 [kcal/mol]        2.479 [kJ/mol]       0.00094418 [Eh]
    Vibrational E           7.351 [kcal/mol]       30.755 [kJ/mol]       0.01171409 [Eh]
  Correction E              8.832 [kcal/mol]       36.953 [kJ/mol]       0.01407455 [Eh]
  Total E, Electronic energy at  298.15 [K]                           -184.67537469 [Eh]

  Enthalpy, H_trans = E_trans + k_B * T
    Electronic H            0.000 [kcal/mol]        0.000 [kJ/mol]       0.00000000 [Eh]
    Translational H         1.481 [kcal/mol]        6.197 [kJ/mol]       0.00236046 [Eh]
    Rotational H            0.592 [kcal/mol]        2.479 [kJ/mol]       0.00094418 [Eh]
    Vibrational H           7.351 [kcal/mol]       30.755 [kJ/mol]       0.01171409 [Eh]
  Correction H              9.424 [kcal/mol]       39.432 [kJ/mol]       0.01501874 [Eh]
  Total H, Enthalpy at  298.15 [K]                                    -184.67443051 [Eh]

  Gibbs free energy, G = H - T * S
    Electronic G            0.000 [kcal/mol]        0.000 [kJ/mol]       0.00000000 [Eh]
    Translational G        -9.631 [kcal/mol]      -40.297 [kJ/mol]      -0.01534814 [Eh]
    Rotational G           -3.666 [kcal/mol]      -15.338 [kJ/mol]      -0.00584185 [Eh]
    Vibrational G           7.121 [kcal/mol]       29.794 [kJ/mol]       0.01134798 [Eh]
  Correction G             -6.176 [kcal/mol]      -25.840 [kJ/mol]      -0.00984200 [Eh]
  Total G, Free enthalpy at  298.15 [K]                               -184.69929125 [Eh]

*** Psi4 exiting successfully. Buy a developer a beer!
