                               Psi4 1.3.2 release

  ==> Input File <==

--------------------------------------------------------------------------
memory 144 GB

molecule {
0 1
O 0.0000000000 0.0000000000 0.0000000000
C 0.0000000000 0.0000000000 1.1584320400
S 0.0000000000 0.0000000000 2.7252829900
}

set dynamic_level 1
set basis aug-cc-pV(T+d)Z

optimize("wB97M-V")
frequencies("wB97M-V")
--------------------------------------------------------------------------

    Molecular point group: c2v
  Charge       = 0
  Multiplicity = 1
  Basis Set: AUG-CC-PV(T+D)Z
    Blend: AUG-CC-PV(T+D)Z
  Basis Set: (AUG-CC-PV(T+D)Z AUX)
    Blend: AUG-CC-PVTZ-JKFIT
  @DF-RKS Final Energy:  -511.55533342564570
    Total Energy =                       -511.5553334256456424
    Molecular point group: c2v
  Basis Set: AUG-CC-PV(T+D)Z
    Blend: AUG-CC-PV(T+D)Z
  Basis Set: (AUG-CC-PV(T+D)Z AUX)
    Blend: AUG-CC-PVTZ-JKFIT
  @DF-RKS Final Energy:  -511.55531171303772
    Total Energy =                       -511.5553117130377245
  Basis Set: AUG-CC-PV(T+D)Z
    Blend: AUG-CC-PV(T+D)Z
  Basis Set: (AUG-CC-PV(T+D)Z AUX)
    Blend: AUG-CC-PVTZ-JKFIT
  @DF-RKS Final Energy:  -511.55535290953082
    Total Energy =                       -511.5553529095308249
  Basis Set: AUG-CC-PV(T+D)Z
    Blend: AUG-CC-PV(T+D)Z
  Basis Set: (AUG-CC-PV(T+D)Z AUX)
    Blend: AUG-CC-PVTZ-JKFIT
  @DF-RKS Final Energy:  -511.55534027863979
    Total Energy =                       -511.5553402786397896
  @DF-RKS Final Energy:  -511.55532396379573
    Total Energy =                       -511.5553239637957290
  @DF-RKS Final Energy:  -511.55544615934309
    Total Energy =                       -511.5554461593430915
  @DF-RKS Final Energy:  -511.55544260360773
    Total Energy =                       -511.5554426036077302
  @DF-RKS Final Energy:  -511.55544739726031
    Total Energy =                       -511.5554473972603660
  @DF-RKS Final Energy:  -511.55544664882893
    Total Energy =                       -511.5554466488288767
  @DF-RKS Final Energy:  -511.55544298108356
    Total Energy =                       -511.5554429810835586
  @DF-RKS Final Energy:  -511.55544738365649
    Total Energy =                       -511.5554473836564853
  @DF-RKS Final Energy:  -511.55544612414576
    Total Energy =                       -511.5554461241457602
  @DF-RKS Final Energy:  -511.55544629889050
    Total Energy =                       -511.5554462988905016
  @DF-RKS Final Energy:  -511.55544629343666
    Total Energy =                       -511.5554462934366597
  @DF-RKS Final Energy:  -511.55544575218141
    Total Energy =                       -511.5554457521814129
  **** Optimization is complete! (in 3 steps) ****
    Final optimized geometry and variables:
  @DF-RKS Final Energy:  -511.55544738365609
    Total Energy =                       -511.5554473836560874
  @DF-RKS Final Energy:  -511.55544612018281
    Total Energy =                       -511.5554461201828076
  @DF-RKS Final Energy:  -511.55544629410662
    Total Energy =                       -511.5554462941066163
  @DF-RKS Final Energy:  -511.55544629343638
    Total Energy =                       -511.5554462934363755
  @DF-RKS Final Energy:  -511.55544575137009
    Total Energy =                       -511.5554457513700868
  @DF-RKS Final Energy:  -511.55544738365586
    Total Energy =                       -511.5554473836558032
  @DF-RKS Final Energy:  -511.55544612018286
    Total Energy =                       -511.5554461201828644
  @DF-RKS Final Energy:  -511.55544629410701
    Total Energy =                       -511.5554462941070142
  @DF-RKS Final Energy:  -511.55544629343711
    Total Energy =                       -511.5554462934371145
  @DF-RKS Final Energy:  -511.55544575137077
    Total Energy =                       -511.5554457513707689
  Basis Set: AUG-CC-PV(T+D)Z
    Blend: AUG-CC-PV(T+D)Z
  Basis Set: (AUG-CC-PV(T+D)Z AUX)
    Blend: AUG-CC-PVTZ-JKFIT
  @DF-RKS Final Energy:  -511.55544644537389
    Total Energy =                       -511.5554464453738888
  Basis Set: AUG-CC-PV(T+D)Z
    Blend: AUG-CC-PV(T+D)Z
  Basis Set: (AUG-CC-PV(T+D)Z AUX)
    Blend: AUG-CC-PVTZ-JKFIT
  @DF-RKS Final Energy:  -511.55544680902563
    Total Energy =                       -511.5554468090256250
  Multiplicity = 1
  Basis Set: AUG-CC-PV(T+D)Z
    Blend: AUG-CC-PV(T+D)Z
  Basis Set: (AUG-CC-PV(T+D)Z AUX)
    Blend: AUG-CC-PVTZ-JKFIT
  @DF-RKS Final Energy:  -511.55544723734175
    Total Energy =                       -511.5554472373417525
    Molecular point group: cs

    Geometry (in Angstrom), charge = 0, multiplicity = 1:

       Center              X                  Y                   Z               Mass
    ------------   -----------------  -----------------  -----------------  -----------------
         O            0.000000000000    -0.000287472104    -1.677326412001    15.994914619570
         C            0.000000000000     0.000665781240    -0.525444039346    12.000000000000
         S            0.000000000000    -0.000106070173     1.036342657956    31.972071174400

  Charge       = 0
  Multiplicity = 1
  Basis Set: AUG-CC-PV(T+D)Z
    Blend: AUG-CC-PV(T+D)Z
  Basis Set: (AUG-CC-PV(T+D)Z AUX)
    Blend: AUG-CC-PVTZ-JKFIT

    Orbital Energies [Eh]
    ---------------------

    Doubly Occupied:

       1Ap   -89.237171     2Ap   -19.423805     3Ap   -10.515000
       4Ap    -8.152590     5Ap    -6.063033     1App   -6.056927
       6Ap    -6.056927     7Ap    -1.279688     8Ap    -0.945602
       9Ap    -0.669622     2App   -0.595003    10Ap    -0.595003
      11Ap    -0.577022     3App   -0.396030    12Ap    -0.396030

  @DF-RKS Final Energy:  -511.55544724142692

   => Energetics <=

    Nuclear Repulsion Energy =             79.5393413869798565
    One-Electron Energy =                -861.5366310588689203
    Two-Electron Energy =                 300.2266915345977623
    DFT Exchange-Correlation Energy =     -29.9093204132005326
    Empirical Dispersion Energy =           0.0000000000000000
    VV10 Nonlocal Energy =                  0.1244713090649616
    Total Energy =                       -511.5554472414269185

  Dipole Moment: [D]
     X:     0.0000      Y:     0.0006      Z:     0.7040     Total:     0.7040

  Vibration                       6                   7                   8
  Freq [cm^-1]                 548.3316            556.1506            888.5177
  Irrep                           B2                  B1                  A1
  Reduced mass [u]             13.0329             13.0329             19.5831
  Force const [mDyne/A]         2.3088              2.3751              9.1089

  Vibration                       9
  Freq [cm^-1]                2138.9922
  Irrep                           A1
  Reduced mass [u]             13.1512
  Force const [mDyne/A]        35.4515

  ==> Thermochemistry Components <==

  Entropy, S
    Electronic S            0.000 [cal/(mol K)]        0.000 [J/(mol K)]       0.00000000 [mEh/K] (multiplicity = 1)
    Translational S        38.194 [cal/(mol K)]      159.802 [J/(mol K)]       0.06086550 [mEh/K] (mol. weight = 59.9670 [u], P = 101325.00 [Pa])
    Rotational S           15.746 [cal/(mol K)]       65.881 [J/(mol K)]       0.02509265 [mEh/K] (symmetry no. = 1)
    Vibrational S           1.226 [cal/(mol K)]        5.130 [J/(mol K)]       0.00195393 [mEh/K]
  Total S                  55.166 [cal/(mol K)]      230.813 [J/(mol K)]       0.08791208 [mEh/K]
  Correction S              0.000 [cal/(mol K)]        0.000 [J/(mol K)]       0.00000000 [mEh/K]

  Constant volume heat capacity, Cv
    Electronic Cv           0.000 [cal/(mol K)]        0.000 [J/(mol K)]       0.00000000 [mEh/K]
    Translational Cv        2.981 [cal/(mol K)]       12.472 [J/(mol K)]       0.00475022 [mEh/K]
    Rotational Cv           1.987 [cal/(mol K)]        8.314 [J/(mol K)]       0.00316681 [mEh/K]
    Vibrational Cv          2.792 [cal/(mol K)]       11.684 [J/(mol K)]       0.00445007 [mEh/K]
  Total Cv                  7.760 [cal/(mol K)]       32.470 [J/(mol K)]       0.01236710 [mEh/K]
  Correction Cv             0.000 [cal/(mol K)]        0.000 [J/(mol K)]       0.00000000 [mEh/K]

  Constant pressure heat capacity, Cp
    Electronic Cp           0.000 [cal/(mol K)]        0.000 [J/(mol K)]       0.00000000 [mEh/K]
    Translational Cp        4.968 [cal/(mol K)]       20.786 [J/(mol K)]       0.00791703 [mEh/K]
    Rotational Cp           1.987 [cal/(mol K)]        8.314 [J/(mol K)]       0.00316681 [mEh/K]
    Vibrational Cp          2.792 [cal/(mol K)]       11.684 [J/(mol K)]       0.00445007 [mEh/K]
  Total Cp                  9.748 [cal/(mol K)]       40.784 [J/(mol K)]       0.01553391 [mEh/K]
  Correction Cp             0.000 [cal/(mol K)]        0.000 [J/(mol K)]       0.00000000 [mEh/K]

  ==> Thermochemistry Energy Analysis <==

  Raw electronic energy, E0
  Total E0, Electronic energy at well bottom at 0 [K]                 -511.55544738 [Eh]

  Zero-point energy, ZPE_vib = Sum_i nu_i / 2
    Electronic ZPE          0.000 [kcal/mol]        0.000 [kJ/mol]       0.00000000 [Eh]
    Translational ZPE       0.000 [kcal/mol]        0.000 [kJ/mol]       0.00000000 [Eh]
    Rotational ZPE          0.000 [kcal/mol]        0.000 [kJ/mol]       0.00000000 [Eh]
    Vibrational ZPE         5.907 [kcal/mol]       24.715 [kJ/mol]       0.00941337 [Eh]        2065.996 [cm^-1]
  Correction ZPE            5.907 [kcal/mol]       24.715 [kJ/mol]       0.00941337 [Eh]        2065.996 [cm^-1]
  Total ZPE, Electronic energy at 0 [K]                               -511.54603401 [Eh]

  Thermal Energy, E (includes ZPE)
    Electronic E            0.000 [kcal/mol]        0.000 [kJ/mol]       0.00000000 [Eh]
    Translational E         0.889 [kcal/mol]        3.718 [kJ/mol]       0.00141628 [Eh]
    Rotational E            0.592 [kcal/mol]        2.479 [kJ/mol]       0.00094418 [Eh]
    Vibrational E           6.179 [kcal/mol]       25.852 [kJ/mol]       0.00984658 [Eh]
  Correction E              7.660 [kcal/mol]       32.050 [kJ/mol]       0.01220704 [Eh]
  Total E, Electronic energy at  298.15 [K]                           -511.54324034 [Eh]

  Enthalpy, H_trans = E_trans + k_B * T
    Electronic H            0.000 [kcal/mol]        0.000 [kJ/mol]       0.00000000 [Eh]
    Translational H         1.481 [kcal/mol]        6.197 [kJ/mol]       0.00236046 [Eh]
    Rotational H            0.592 [kcal/mol]        2.479 [kJ/mol]       0.00094418 [Eh]
    Vibrational H           6.179 [kcal/mol]       25.852 [kJ/mol]       0.00984658 [Eh]
  Correction H              8.253 [kcal/mol]       34.529 [kJ/mol]       0.01315123 [Eh]
  Total H, Enthalpy at  298.15 [K]                                    -511.54229616 [Eh]

  Gibbs free energy, G = H - T * S
    Electronic G            0.000 [kcal/mol]        0.000 [kJ/mol]       0.00000000 [Eh]
    Translational G        -9.906 [kcal/mol]      -41.448 [kJ/mol]      -0.01578659 [Eh]
    Rotational G           -4.102 [kcal/mol]      -17.163 [kJ/mol]      -0.00653719 [Eh]
    Vibrational G           5.813 [kcal/mol]       24.323 [kJ/mol]       0.00926402 [Eh]
  Correction G             -8.195 [kcal/mol]      -34.288 [kJ/mol]      -0.01305976 [Eh]
  Total G, Free enthalpy at  298.15 [K]                               -511.56850714 [Eh]

*** Psi4 exiting successfully. Buy a developer a beer!
