                               Psi4 1.3.2 release

  ==> Input File <==

--------------------------------------------------------------------------
memory 144 GB

molecule {
0 1
P 0.0000000000 0.0000000000 -0.0679917919
H 1.1903431933 0.0000000000 0.6964572780
H -0.5951715967 -1.0308674445 0.6964572780
H -0.5951715967 1.0308674445 0.6964572780
}

set dynamic_level 1
set basis aug-cc-pV(T+d)Z

optimize("wB97M-V")
frequencies("wB97M-V")
--------------------------------------------------------------------------

    Molecular point group: cs
  Charge       = 0
  Multiplicity = 1
  Basis Set: AUG-CC-PV(T+D)Z
    Blend: AUG-CC-PV(T+D)Z
  Basis Set: (AUG-CC-PV(T+D)Z AUX)
    Blend: AUG-CC-PVTZ-JKFIT
  @DF-RKS Final Energy:  -343.12185777673466
    Total Energy =                       -343.1218577767347142
    Molecular point group: cs
  Basis Set: AUG-CC-PV(T+D)Z
    Blend: AUG-CC-PV(T+D)Z
  Basis Set: (AUG-CC-PV(T+D)Z AUX)
    Blend: AUG-CC-PVTZ-JKFIT
  @DF-RKS Final Energy:  -343.12185575772759
    Total Energy =                       -343.1218557577275874
  Basis Set: AUG-CC-PV(T+D)Z
    Blend: AUG-CC-PV(T+D)Z
  Basis Set: (AUG-CC-PV(T+D)Z AUX)
    Blend: AUG-CC-PVTZ-JKFIT
  @DF-RKS Final Energy:  -343.12185576565088
    Total Energy =                       -343.1218557656508779
  Basis Set: AUG-CC-PV(T+D)Z
    Blend: AUG-CC-PV(T+D)Z
  Basis Set: (AUG-CC-PV(T+D)Z AUX)
    Blend: AUG-CC-PVTZ-JKFIT
  @DF-RKS Final Energy:  -343.12185723340548
    Total Energy =                       -343.1218572334054784
  @DF-RKS Final Energy:  -343.12185610955925
    Total Energy =                       -343.1218561095593031
  @DF-RKS Final Energy:  -343.12186160746904
    Total Energy =                       -343.1218616074689862
  @DF-RKS Final Energy:  -343.12185041031654
    Total Energy =                       -343.1218504103165401
  @DF-RKS Final Energy:  -343.12186163717115
    Total Energy =                       -343.1218616371711505
  @DF-RKS Final Energy:  -343.12185038159254
    Total Energy =                       -343.1218503815925374
  @DF-RKS Final Energy:  -343.12186902657936
    Total Energy =                       -343.1218690265793612
  @DF-RKS Final Energy:  -343.12186703126019
    Total Energy =                       -343.1218670312601944
  @DF-RKS Final Energy:  -343.12186695637735
    Total Energy =                       -343.1218669563773460
  @DF-RKS Final Energy:  -343.12186716056232
    Total Energy =                       -343.1218671605623172
  @DF-RKS Final Energy:  -343.12186865382193
    Total Energy =                       -343.1218686538219913
  @DF-RKS Final Energy:  -343.12186663733138
    Total Energy =                       -343.1218666373313226
  @DF-RKS Final Energy:  -343.12186785746104
    Total Energy =                       -343.1218678574610976
  @DF-RKS Final Energy:  -343.12186663292380
    Total Energy =                       -343.1218666329238545
  @DF-RKS Final Energy:  -343.12186786077905
    Total Energy =                       -343.1218678607790480
  **** Optimization is complete! (in 2 steps) ****
    Final optimized geometry and variables:
  @DF-RKS Final Energy:  -343.12186902603298
    Total Energy =                       -343.1218690260329822
  @DF-RKS Final Energy:  -343.12186703128850
    Total Energy =                       -343.1218670312885592
  @DF-RKS Final Energy:  -343.12186663771075
    Total Energy =                       -343.1218666377107525
  @DF-RKS Final Energy:  -343.12186785804818
    Total Energy =                       -343.1218678580481196
  @DF-RKS Final Energy:  -343.12186663310382
    Total Energy =                       -343.1218666331038207
  @DF-RKS Final Energy:  -343.12186786078257
    Total Energy =                       -343.1218678607825154
  @DF-RKS Final Energy:  -343.12186658242314
    Total Energy =                       -343.1218665824231948
  @DF-RKS Final Energy:  -343.12186514873923
    Total Energy =                       -343.1218651487392890
  @DF-RKS Final Energy:  -343.12186433032946
    Total Energy =                       -343.1218643303294584
  @DF-RKS Final Energy:  -343.12186313952645
    Total Energy =                       -343.1218631395264538
  @DF-RKS Final Energy:  -343.12186603097803
    Total Energy =                       -343.1218660309780262
  @DF-RKS Final Energy:  -343.12186329798334
    Total Energy =                       -343.1218632979833387
  @DF-RKS Final Energy:  -343.12186727655740
    Total Energy =                       -343.1218672765573388
  @DF-RKS Final Energy:  -343.12186612589591
    Total Energy =                       -343.1218661258959060
  @DF-RKS Final Energy:  -343.12186603600230
    Total Energy =                       -343.1218660360022454
  @DF-RKS Final Energy:  -343.12186329451094
    Total Energy =                       -343.1218632945110585
  @DF-RKS Final Energy:  -343.12186591119962
    Total Energy =                       -343.1218659111996203
  @DF-RKS Final Energy:  -343.12186345549230
    Total Energy =                       -343.1218634554923597
  Basis Set: AUG-CC-PV(T+D)Z
    Blend: AUG-CC-PV(T+D)Z
  Basis Set: (AUG-CC-PV(T+D)Z AUX)
    Blend: AUG-CC-PVTZ-JKFIT
  @DF-RKS Final Energy:  -343.12186697179823
    Total Energy =                       -343.1218669717982266
  Basis Set: AUG-CC-PV(T+D)Z
    Blend: AUG-CC-PV(T+D)Z
  Basis Set: (AUG-CC-PV(T+D)Z AUX)
    Blend: AUG-CC-PVTZ-JKFIT
  @DF-RKS Final Energy:  -343.12186671366140
    Total Energy =                       -343.1218667136614044
  Multiplicity = 1
  Basis Set: AUG-CC-PV(T+D)Z
    Blend: AUG-CC-PV(T+D)Z
  Basis Set: (AUG-CC-PV(T+D)Z AUX)
    Blend: AUG-CC-PVTZ-JKFIT
  @DF-RKS Final Energy:  -343.12186677982442
    Total Energy =                       -343.1218667798243018
    Molecular point group: c1

    Geometry (in Angstrom), charge = 0, multiplicity = 1:

       Center              X                  Y                   Z               Mass
    ------------   -----------------  -----------------  -----------------  -----------------
         P           -0.000000762580     0.068308798059    -0.000106723053    30.973761998420
         H            0.591498201222    -0.701012533572     1.027075504055     1.007825032230
         H            0.594133824391    -0.698558852623    -1.026410519304     1.007825032230
         H           -1.185608589038    -0.699781562799     0.002614964001     1.007825032230

  Charge       = 0
  Multiplicity = 1
  Basis Set: AUG-CC-PV(T+D)Z
    Blend: AUG-CC-PV(T+D)Z
  Basis Set: (AUG-CC-PV(T+D)Z AUX)
    Blend: AUG-CC-PVTZ-JKFIT

    Orbital Energies [Eh]
    ---------------------

    Doubly Occupied:

       1A    -77.384069     2A     -6.721060     3A     -4.833369
       4A     -4.833368     5A     -4.829736     6A     -0.762695
       7A     -0.480688     8A     -0.480012     9A     -0.370557

  @DF-RKS Final Energy:  -343.12186677976831

   => Energetics <=

    Nuclear Repulsion Energy =             17.6298831112075653
    One-Electron Energy =                -508.6360843918886872
    Two-Electron Energy =                 166.2101648053210567
    DFT Exchange-Correlation Energy =     -18.4011871061824905
    Empirical Dispersion Energy =           0.0000000000000000
    VV10 Nonlocal Energy =                  0.0753568017742584
    Total Energy =                       -343.1218667797683111

  Dipole Moment: [D]
     X:     0.0000      Y:    -0.5556      Z:    -0.0027     Total:     0.5556

  Vibration                       7                   8                   9
  Freq [cm^-1]                1010.7666           1136.7585           1535.4769
  Irrep                           Ap                  Ap                 App
  Reduced mass [u]              1.0750              1.0255              1.0361
  Force const [mDyne/A]         0.6471              0.7808              1.4393

  Vibration                       10                  11                  12
  Freq [cm^-1]                2435.3636           2436.1042           2621.6748
  Irrep                           Ap                  Ap                 App
  Reduced mass [u]              1.0357              1.0370              1.0299
  Force const [mDyne/A]         3.6192              3.6260              4.1706

  ==> Thermochemistry Components <==

  Entropy, S
    Electronic S            0.000 [cal/(mol K)]        0.000 [J/(mol K)]       0.00000000 [mEh/K] (multiplicity = 1)
    Translational S        36.502 [cal/(mol K)]      152.724 [J/(mol K)]       0.05816968 [mEh/K] (mol. weight = 33.9972 [u], P = 101325.00 [Pa])
    Rotational S           15.661 [cal/(mol K)]       65.527 [J/(mol K)]       0.02495793 [mEh/K] (symmetry no. = 1)
    Vibrational S           0.154 [cal/(mol K)]        0.644 [J/(mol K)]       0.00024512 [mEh/K]
  Total S                  52.317 [cal/(mol K)]      218.895 [J/(mol K)]       0.08337273 [mEh/K]
  Correction S              0.000 [cal/(mol K)]        0.000 [J/(mol K)]       0.00000000 [mEh/K]

  Constant volume heat capacity, Cv
    Electronic Cv           0.000 [cal/(mol K)]        0.000 [J/(mol K)]       0.00000000 [mEh/K]
    Translational Cv        2.981 [cal/(mol K)]       12.472 [J/(mol K)]       0.00475022 [mEh/K]
    Rotational Cv           2.981 [cal/(mol K)]       12.472 [J/(mol K)]       0.00475022 [mEh/K]
    Vibrational Cv          0.687 [cal/(mol K)]        2.874 [J/(mol K)]       0.00109483 [mEh/K]
  Total Cv                  6.649 [cal/(mol K)]       27.818 [J/(mol K)]       0.01059527 [mEh/K]
  Correction Cv             0.000 [cal/(mol K)]        0.000 [J/(mol K)]       0.00000000 [mEh/K]

  Constant pressure heat capacity, Cp
    Electronic Cp           0.000 [cal/(mol K)]        0.000 [J/(mol K)]       0.00000000 [mEh/K]
    Translational Cp        4.968 [cal/(mol K)]       20.786 [J/(mol K)]       0.00791703 [mEh/K]
    Rotational Cp           2.981 [cal/(mol K)]       12.472 [J/(mol K)]       0.00475022 [mEh/K]
    Vibrational Cp          0.687 [cal/(mol K)]        2.874 [J/(mol K)]       0.00109483 [mEh/K]
  Total Cp                  8.636 [cal/(mol K)]       36.132 [J/(mol K)]       0.01376208 [mEh/K]
  Correction Cp             0.000 [cal/(mol K)]        0.000 [J/(mol K)]       0.00000000 [mEh/K]

  ==> Thermochemistry Energy Analysis <==

  Raw electronic energy, E0
  Total E0, Electronic energy at well bottom at 0 [K]                 -343.12186903 [Eh]

  Zero-point energy, ZPE_vib = Sum_i nu_i / 2
    Electronic ZPE          0.000 [kcal/mol]        0.000 [kJ/mol]       0.00000000 [Eh]
    Translational ZPE       0.000 [kcal/mol]        0.000 [kJ/mol]       0.00000000 [Eh]
    Rotational ZPE          0.000 [kcal/mol]        0.000 [kJ/mol]       0.00000000 [Eh]
    Vibrational ZPE        15.977 [kcal/mol]       66.848 [kJ/mol]       0.02546113 [Eh]        5588.072 [cm^-1]
  Correction ZPE           15.977 [kcal/mol]       66.848 [kJ/mol]       0.02546113 [Eh]        5588.072 [cm^-1]
  Total ZPE, Electronic energy at 0 [K]                               -343.09640790 [Eh]

  Thermal Energy, E (includes ZPE)
    Electronic E            0.000 [kcal/mol]        0.000 [kJ/mol]       0.00000000 [Eh]
    Translational E         0.889 [kcal/mol]        3.718 [kJ/mol]       0.00141628 [Eh]
    Rotational E            0.889 [kcal/mol]        3.718 [kJ/mol]       0.00141628 [Eh]
    Vibrational E          16.016 [kcal/mol]       67.009 [kJ/mol]       0.02552248 [Eh]
  Correction E             17.793 [kcal/mol]       74.446 [kJ/mol]       0.02835504 [Eh]
  Total E, Electronic energy at  298.15 [K]                           -343.09351399 [Eh]

  Enthalpy, H_trans = E_trans + k_B * T
    Electronic H            0.000 [kcal/mol]        0.000 [kJ/mol]       0.00000000 [Eh]
    Translational H         1.481 [kcal/mol]        6.197 [kJ/mol]       0.00236046 [Eh]
    Rotational H            0.889 [kcal/mol]        3.718 [kJ/mol]       0.00141628 [Eh]
    Vibrational H          16.016 [kcal/mol]       67.009 [kJ/mol]       0.02552248 [Eh]
  Correction H             18.386 [kcal/mol]       76.925 [kJ/mol]       0.02929922 [Eh]
  Total H, Enthalpy at  298.15 [K]                                    -343.09256980 [Eh]

  Gibbs free energy, G = H - T * S
    Electronic G            0.000 [kcal/mol]        0.000 [kJ/mol]       0.00000000 [Eh]
    Translational G        -9.402 [kcal/mol]      -39.337 [kJ/mol]      -0.01498283 [Eh]
    Rotational G           -3.781 [kcal/mol]      -15.818 [kJ/mol]      -0.00602493 [Eh]
    Vibrational G          15.970 [kcal/mol]       66.817 [kJ/mol]       0.02544940 [Eh]
  Correction G              2.787 [kcal/mol]       11.662 [kJ/mol]       0.00444164 [Eh]
  Total G, Free enthalpy at  298.15 [K]                               -343.11742738 [Eh]

*** Psi4 exiting successfully. Buy a developer a beer!
