                               Psi4 1.3.2 release

  ==> Input File <==

--------------------------------------------------------------------------
memory 144 GB

molecule {
0 1
Si 0.0000000000 0.0000000000 0.0000000000
O 0.0000000000 0.0000000000 1.5170406700
}

set dynamic_level 1
set basis aug-cc-pV(T+d)Z

optimize("wB97M-V")
frequencies("wB97M-V")
--------------------------------------------------------------------------

    Molecular point group: c2v
  Charge       = 0
  Multiplicity = 1
  Basis Set: AUG-CC-PV(T+D)Z
    Blend: AUG-CC-PV(T+D)Z
  Basis Set: (AUG-CC-PV(T+D)Z AUX)
    Blend: AUG-CC-PVTZ-JKFIT
  @DF-RKS Final Energy:  -364.73983130078352
    Total Energy =                       -364.7398313007835213
    Molecular point group: c2v
  Basis Set: AUG-CC-PV(T+D)Z
    Blend: AUG-CC-PV(T+D)Z
  Basis Set: (AUG-CC-PV(T+D)Z AUX)
    Blend: AUG-CC-PVTZ-JKFIT
  @DF-RKS Final Energy:  -364.73981204686686
    Total Energy =                       -364.7398120468668594
  Basis Set: AUG-CC-PV(T+D)Z
    Blend: AUG-CC-PV(T+D)Z
  Basis Set: (AUG-CC-PV(T+D)Z AUX)
    Blend: AUG-CC-PVTZ-JKFIT
  @DF-RKS Final Energy:  -364.73984908143484
    Total Energy =                       -364.7398490814347838
  Basis Set: AUG-CC-PV(T+D)Z
    Blend: AUG-CC-PV(T+D)Z
  Basis Set: (AUG-CC-PV(T+D)Z AUX)
    Blend: AUG-CC-PVTZ-JKFIT
  @DF-RKS Final Energy:  -364.73994329185064
    Total Energy =                       -364.7399432918505795
  @DF-RKS Final Energy:  -364.73993997862902
    Total Energy =                       -364.7399399786290815
  @DF-RKS Final Energy:  -364.73994505673494
    Total Energy =                       -364.7399450567349390
  @DF-RKS Final Energy:  -364.73994536754645
    Total Energy =                       -364.7399453675463974
  @DF-RKS Final Energy:  -364.73994466006383
    Total Energy =                       -364.7399446600638271
  @DF-RKS Final Energy:  -364.73994451094643
    Total Energy =                       -364.7399445109464295
  **** Optimization is complete! (in 3 steps) ****
    Final optimized geometry and variables:
  @DF-RKS Final Energy:  -364.73994536754589
    Total Energy =                       -364.7399453675458858
  @DF-RKS Final Energy:  -364.73994466006371
    Total Energy =                       -364.7399446600637134
  Basis Set: AUG-CC-PV(T+D)Z
    Blend: AUG-CC-PV(T+D)Z
  Basis Set: (AUG-CC-PV(T+D)Z AUX)
    Blend: AUG-CC-PVTZ-JKFIT
  @DF-RKS Final Energy:  -364.73994451094654
    Total Energy =                       -364.7399445109465432
  Basis Set: AUG-CC-PV(T+D)Z
    Blend: AUG-CC-PV(T+D)Z
  Basis Set: (AUG-CC-PV(T+D)Z AUX)
    Blend: AUG-CC-PVTZ-JKFIT
  @DF-RKS Final Energy:  -364.73994536754651
    Total Energy =                       -364.7399453675465111
  Multiplicity = 1
  Basis Set: AUG-CC-PV(T+D)Z
    Blend: AUG-CC-PV(T+D)Z
  Basis Set: (AUG-CC-PV(T+D)Z AUX)
    Blend: AUG-CC-PVTZ-JKFIT
  @DF-RKS Final Energy:  -364.73994466006440
    Total Energy =                       -364.7399446600643955
    Molecular point group: c2v

    Geometry (in Angstrom), charge = 0, multiplicity = 1:

       Center              X                  Y                   Z               Mass
    ------------   -----------------  -----------------  -----------------  -----------------
         SI           0.000000000000     0.000000000000    -0.547831852951    27.976926534650
         O            0.000000000000     0.000000000000     0.958220276125    15.994914619570

  Charge       = 0
  Multiplicity = 1
  Basis Set: AUG-CC-PV(T+D)Z
    Blend: AUG-CC-PV(T+D)Z
  Basis Set: (AUG-CC-PV(T+D)Z AUX)
    Blend: AUG-CC-PVTZ-JKFIT

    Orbital Energies [Eh]
    ---------------------

    Doubly Occupied:

       1A1   -66.452040     2A1   -19.318161     3A1    -5.474862
       1B1    -3.790068     1B2    -3.790068     4A1    -3.783657
       5A1    -1.068038     6A1    -0.544186     2B1    -0.435831
       2B2    -0.435831     7A1    -0.406443

  @DF-RKS Final Energy:  -364.73994451094626

   => Energetics <=

    Nuclear Repulsion Energy =             39.3531182956994456
    One-Electron Energy =                -583.2346492985723216
    Two-Electron Energy =                 201.3076536525274491
    DFT Exchange-Correlation Energy =     -22.2590404796035841
    Empirical Dispersion Energy =           0.0000000000000000
    VV10 Nonlocal Energy =                  0.0929733190026891
    Total Energy =                       -364.7399445109463159

  Dipole Moment: [D]
     X:     0.0000      Y:     0.0000      Z:    -3.3397     Total:     3.3397

  Vibration                       6
  Freq [cm^-1]                1285.7724
  Irrep                           A1
  Reduced mass [u]             18.9466
  Force const [mDyne/A]        18.4548

  ==> Thermochemistry Components <==

  Entropy, S
    Electronic S            0.000 [cal/(mol K)]        0.000 [J/(mol K)]       0.00000000 [mEh/K] (multiplicity = 1)
    Translational S        37.269 [cal/(mol K)]      155.933 [J/(mol K)]       0.05939177 [mEh/K] (mol. weight = 43.9718 [u], P = 101325.00 [Pa])
    Rotational S           13.213 [cal/(mol K)]       55.284 [J/(mol K)]       0.02105671 [mEh/K] (symmetry no. = 1)
    Vibrational S           0.029 [cal/(mol K)]        0.121 [J/(mol K)]       0.00004617 [mEh/K]
  Total S                  50.511 [cal/(mol K)]      211.339 [J/(mol K)]       0.08049466 [mEh/K]
  Correction S              0.000 [cal/(mol K)]        0.000 [J/(mol K)]       0.00000000 [mEh/K]

  Constant volume heat capacity, Cv
    Electronic Cv           0.000 [cal/(mol K)]        0.000 [J/(mol K)]       0.00000000 [mEh/K]
    Translational Cv        2.981 [cal/(mol K)]       12.472 [J/(mol K)]       0.00475022 [mEh/K]
    Rotational Cv           1.987 [cal/(mol K)]        8.314 [J/(mol K)]       0.00316681 [mEh/K]
    Vibrational Cv          0.155 [cal/(mol K)]        0.649 [J/(mol K)]       0.00024725 [mEh/K]
  Total Cv                  5.123 [cal/(mol K)]       21.435 [J/(mol K)]       0.00816428 [mEh/K]
  Correction Cv             0.000 [cal/(mol K)]        0.000 [J/(mol K)]       0.00000000 [mEh/K]

  Constant pressure heat capacity, Cp
    Electronic Cp           0.000 [cal/(mol K)]        0.000 [J/(mol K)]       0.00000000 [mEh/K]
    Translational Cp        4.968 [cal/(mol K)]       20.786 [J/(mol K)]       0.00791703 [mEh/K]
    Rotational Cp           1.987 [cal/(mol K)]        8.314 [J/(mol K)]       0.00316681 [mEh/K]
    Vibrational Cp          0.155 [cal/(mol K)]        0.649 [J/(mol K)]       0.00024725 [mEh/K]
  Total Cp                  7.110 [cal/(mol K)]       29.750 [J/(mol K)]       0.01133109 [mEh/K]
  Correction Cp             0.000 [cal/(mol K)]        0.000 [J/(mol K)]       0.00000000 [mEh/K]

  ==> Thermochemistry Energy Analysis <==

  Raw electronic energy, E0
  Total E0, Electronic energy at well bottom at 0 [K]                 -364.73994537 [Eh]

  Zero-point energy, ZPE_vib = Sum_i nu_i / 2
    Electronic ZPE          0.000 [kcal/mol]        0.000 [kJ/mol]       0.00000000 [Eh]
    Translational ZPE       0.000 [kcal/mol]        0.000 [kJ/mol]       0.00000000 [Eh]
    Rotational ZPE          0.000 [kcal/mol]        0.000 [kJ/mol]       0.00000000 [Eh]
    Vibrational ZPE         1.838 [kcal/mol]        7.691 [kJ/mol]       0.00292920 [Eh]         642.886 [cm^-1]
  Correction ZPE            1.838 [kcal/mol]        7.691 [kJ/mol]       0.00292920 [Eh]         642.886 [cm^-1]
  Total ZPE, Electronic energy at 0 [K]                               -364.73701616 [Eh]

  Thermal Energy, E (includes ZPE)
    Electronic E            0.000 [kcal/mol]        0.000 [kJ/mol]       0.00000000 [Eh]
    Translational E         0.889 [kcal/mol]        3.718 [kJ/mol]       0.00141628 [Eh]
    Rotational E            0.592 [kcal/mol]        2.479 [kJ/mol]       0.00094418 [Eh]
    Vibrational E           1.846 [kcal/mol]        7.722 [kJ/mol]       0.00294106 [Eh]
  Correction E              3.327 [kcal/mol]       13.919 [kJ/mol]       0.00530152 [Eh]
  Total E, Electronic energy at  298.15 [K]                           -364.73464384 [Eh]

  Enthalpy, H_trans = E_trans + k_B * T
    Electronic H            0.000 [kcal/mol]        0.000 [kJ/mol]       0.00000000 [Eh]
    Translational H         1.481 [kcal/mol]        6.197 [kJ/mol]       0.00236046 [Eh]
    Rotational H            0.592 [kcal/mol]        2.479 [kJ/mol]       0.00094418 [Eh]
    Vibrational H           1.846 [kcal/mol]        7.722 [kJ/mol]       0.00294106 [Eh]
  Correction H              3.919 [kcal/mol]       16.398 [kJ/mol]       0.00624571 [Eh]
  Total H, Enthalpy at  298.15 [K]                                    -364.73369966 [Eh]

  Gibbs free energy, G = H - T * S
    Electronic G            0.000 [kcal/mol]        0.000 [kJ/mol]       0.00000000 [Eh]
    Translational G        -9.631 [kcal/mol]      -40.294 [kJ/mol]      -0.01534720 [Eh]
    Rotational G           -3.347 [kcal/mol]      -14.004 [kJ/mol]      -0.00533387 [Eh]
    Vibrational G           1.837 [kcal/mol]        7.686 [kJ/mol]       0.00292730 [Eh]
  Correction G            -11.141 [kcal/mol]      -46.613 [kJ/mol]      -0.01775377 [Eh]
  Total G, Free enthalpy at  298.15 [K]                               -364.75769914 [Eh]

*** Psi4 exiting successfully. Buy a developer a beer!
