                               Psi4 1.3.2 release

  ==> Input File <==

--------------------------------------------------------------------------
memory 144 GB

molecule {
0 1
S 0.0000000000 0.0000000000 0.0000000000
O 0.0000000000 0.0000000000 1.4355085900
O 1.2508167239 0.0000000000 -0.7043737894
}

set dynamic_level 1
set basis aug-cc-pV(T+d)Z

optimize("wB97M-V")
frequencies("wB97M-V")
--------------------------------------------------------------------------

    Molecular point group: c2v
  Charge       = 0
  Multiplicity = 1
  Basis Set: AUG-CC-PV(T+D)Z
    Blend: AUG-CC-PV(T+D)Z
  Basis Set: (AUG-CC-PV(T+D)Z AUX)
    Blend: AUG-CC-PVTZ-JKFIT
  @DF-RKS Final Energy:  -548.65887495837660
    Total Energy =                       -548.6588749583767139
    Molecular point group: c2v
  Basis Set: AUG-CC-PV(T+D)Z
    Blend: AUG-CC-PV(T+D)Z
  Basis Set: (AUG-CC-PV(T+D)Z AUX)
    Blend: AUG-CC-PVTZ-JKFIT
  @DF-RKS Final Energy:  -548.65886471983981
    Total Energy =                       -548.6588647198396984
  Basis Set: AUG-CC-PV(T+D)Z
    Blend: AUG-CC-PV(T+D)Z
  Basis Set: (AUG-CC-PV(T+D)Z AUX)
    Blend: AUG-CC-PVTZ-JKFIT
  @DF-RKS Final Energy:  -548.65888444675295
    Total Energy =                       -548.6588844467530635
  Basis Set: AUG-CC-PV(T+D)Z
    Blend: AUG-CC-PV(T+D)Z
  Basis Set: (AUG-CC-PV(T+D)Z AUX)
    Blend: AUG-CC-PVTZ-JKFIT
  @DF-RKS Final Energy:  -548.65889000036998
    Total Energy =                       -548.6588900003700928
  @DF-RKS Final Energy:  -548.65885901962179
    Total Energy =                       -548.6588590196217865
  @DF-RKS Final Energy:  -548.65899107809173
    Total Energy =                       -548.6589910780918444
  @DF-RKS Final Energy:  -548.65898582057321
    Total Energy =                       -548.6589858205732071
  @DF-RKS Final Energy:  -548.65899556745114
    Total Energy =                       -548.6589955674512566
  @DF-RKS Final Energy:  -548.65899370577836
    Total Energy =                       -548.6589937057782436
  @DF-RKS Final Energy:  -548.65898752555347
    Total Energy =                       -548.6589875255535844
  @DF-RKS Final Energy:  -548.65900609602636
    Total Energy =                       -548.6590060960263600
  @DF-RKS Final Energy:  -548.65900667964092
    Total Energy =                       -548.6590066796409246
  @DF-RKS Final Energy:  -548.65900474040427
    Total Energy =                       -548.6590047404042707
  @DF-RKS Final Energy:  -548.65900521725200
    Total Energy =                       -548.6590052172521155
  @DF-RKS Final Energy:  -548.65900604284525
    Total Energy =                       -548.6590060428452489
  @DF-RKS Final Energy:  -548.65900680273069
    Total Energy =                       -548.6590068027308007
  @DF-RKS Final Energy:  -548.65900640071754
    Total Energy =                       -548.6590064007175442
  @DF-RKS Final Energy:  -548.65900643610291
    Total Energy =                       -548.6590064361027999
  @DF-RKS Final Energy:  -548.65900634934087
    Total Energy =                       -548.6590063493408707
  @DF-RKS Final Energy:  -548.65900632710793
    Total Energy =                       -548.6590063271080453
  **** Optimization is complete! (in 4 steps) ****
    Final optimized geometry and variables:
  @DF-RKS Final Energy:  -548.65900680273160
    Total Energy =                       -548.6590068027317102
  @DF-RKS Final Energy:  -548.65900640071766
    Total Energy =                       -548.6590064007175442
  @DF-RKS Final Energy:  -548.65900643610280
    Total Energy =                       -548.6590064361029135
  @DF-RKS Final Energy:  -548.65900634934087
    Total Energy =                       -548.6590063493409843
  @DF-RKS Final Energy:  -548.65900632710850
    Total Energy =                       -548.6590063271085000
  @DF-RKS Final Energy:  -548.65900680273160
    Total Energy =                       -548.6590068027314828
  @DF-RKS Final Energy:  -548.65900640071720
    Total Energy =                       -548.6590064007172032
  @DF-RKS Final Energy:  -548.65900643610314
    Total Energy =                       -548.6590064361032546
  @DF-RKS Final Energy:  -548.65900634934155
    Total Energy =                       -548.6590063493415528
  Basis Set: AUG-CC-PV(T+D)Z
    Blend: AUG-CC-PV(T+D)Z
  Basis Set: (AUG-CC-PV(T+D)Z AUX)
    Blend: AUG-CC-PVTZ-JKFIT
  @DF-RKS Final Energy:  -548.65900632710873
    Total Energy =                       -548.6590063271088411
  Basis Set: AUG-CC-PV(T+D)Z
    Blend: AUG-CC-PV(T+D)Z
  Basis Set: (AUG-CC-PV(T+D)Z AUX)
    Blend: AUG-CC-PVTZ-JKFIT
  @DF-RKS Final Energy:  -548.65900654528923
    Total Energy =                       -548.6590065452892304
  Multiplicity = 1
  Basis Set: AUG-CC-PV(T+D)Z
    Blend: AUG-CC-PV(T+D)Z
  Basis Set: (AUG-CC-PV(T+D)Z AUX)
    Blend: AUG-CC-PVTZ-JKFIT
  @DF-RKS Final Energy:  -548.65900652649646
    Total Energy =                       -548.6590065264963414
    Molecular point group: cs

    Geometry (in Angstrom), charge = 0, multiplicity = 1:

       Center              X                  Y                   Z               Mass
    ------------   -----------------  -----------------  -----------------  -----------------
         S            0.000000000000    -0.000305585276    -0.362093266683    31.972071174400
         O            0.000000000000     1.231916198283     0.362071797333    15.994914619570
         O            0.000000000000    -1.231305367002     0.361712728531    15.994914619570

  Charge       = 0
  Multiplicity = 1
  Basis Set: AUG-CC-PV(T+D)Z
    Blend: AUG-CC-PV(T+D)Z
  Basis Set: (AUG-CC-PV(T+D)Z AUX)
    Blend: AUG-CC-PVTZ-JKFIT

    Orbital Energies [Eh]
    ---------------------

    Doubly Occupied:

       1Ap   -89.391674     2Ap   -19.397976     3Ap   -19.397799
       4Ap    -8.285746     1App   -6.196505     5Ap    -6.193744
       6Ap    -6.190305     7Ap    -1.285315     8Ap    -1.190666
       9Ap    -0.758839    10Ap    -0.612924     2App   -0.612561
      11Ap    -0.609691     3App   -0.483669    12Ap    -0.473640
      13Ap    -0.442151

  @DF-RKS Final Energy:  -548.65900583265864

   => Energetics <=

    Nuclear Repulsion Energy =            108.5730440137527637
    One-Electron Energy =                -971.1365896694430830
    Two-Electron Energy =                 346.1498769833552842
    DFT Exchange-Correlation Energy =     -32.3778616168374072
    Empirical Dispersion Energy =           0.0000000000000000
    VV10 Nonlocal Energy =                  0.1325244565137841
    Total Energy =                       -548.6590058326586359

  Dipole Moment: [D]
     X:     0.0000      Y:    -0.0064      Z:    -1.7359     Total:     1.7359

  Vibration                       7                   8                   9
  Freq [cm^-1]                 525.5789           1232.1373           1432.0279
  Irrep                           A1                  A1                  B2
  Reduced mass [u]             18.6426             17.9297             20.3270
  Force const [mDyne/A]         3.0341             16.0377             24.5599

  ==> Thermochemistry Components <==

  Entropy, S
    Electronic S            0.000 [cal/(mol K)]        0.000 [J/(mol K)]       0.00000000 [mEh/K] (multiplicity = 1)
    Translational S        38.386 [cal/(mol K)]      160.607 [J/(mol K)]       0.06117186 [mEh/K] (mol. weight = 63.9619 [u], P = 101325.00 [Pa])
    Rotational S           20.205 [cal/(mol K)]       84.537 [J/(mol K)]       0.03219842 [mEh/K] (symmetry no. = 2)
    Vibrational S           0.649 [cal/(mol K)]        2.716 [J/(mol K)]       0.00103433 [mEh/K]
  Total S                  59.240 [cal/(mol K)]      247.859 [J/(mol K)]       0.09440461 [mEh/K]
  Correction S              0.000 [cal/(mol K)]        0.000 [J/(mol K)]       0.00000000 [mEh/K]

  Constant volume heat capacity, Cv
    Electronic Cv           0.000 [cal/(mol K)]        0.000 [J/(mol K)]       0.00000000 [mEh/K]
    Translational Cv        2.981 [cal/(mol K)]       12.472 [J/(mol K)]       0.00475022 [mEh/K]
    Rotational Cv           2.981 [cal/(mol K)]       12.472 [J/(mol K)]       0.00475022 [mEh/K]
    Vibrational Cv          1.473 [cal/(mol K)]        6.163 [J/(mol K)]       0.00234736 [mEh/K]
  Total Cv                  7.435 [cal/(mol K)]       31.106 [J/(mol K)]       0.01184779 [mEh/K]
  Correction Cv             0.000 [cal/(mol K)]        0.000 [J/(mol K)]       0.00000000 [mEh/K]

  Constant pressure heat capacity, Cp
    Electronic Cp           0.000 [cal/(mol K)]        0.000 [J/(mol K)]       0.00000000 [mEh/K]
    Translational Cp        4.968 [cal/(mol K)]       20.786 [J/(mol K)]       0.00791703 [mEh/K]
    Rotational Cp           2.981 [cal/(mol K)]       12.472 [J/(mol K)]       0.00475022 [mEh/K]
    Vibrational Cp          1.473 [cal/(mol K)]        6.163 [J/(mol K)]       0.00234736 [mEh/K]
  Total Cp                  9.422 [cal/(mol K)]       39.421 [J/(mol K)]       0.01501461 [mEh/K]
  Correction Cp             0.000 [cal/(mol K)]        0.000 [J/(mol K)]       0.00000000 [mEh/K]

  ==> Thermochemistry Energy Analysis <==

  Raw electronic energy, E0
  Total E0, Electronic energy at well bottom at 0 [K]                 -548.65900680 [Eh]

  Zero-point energy, ZPE_vib = Sum_i nu_i / 2
    Electronic ZPE          0.000 [kcal/mol]        0.000 [kJ/mol]       0.00000000 [Eh]
    Translational ZPE       0.000 [kcal/mol]        0.000 [kJ/mol]       0.00000000 [Eh]
    Rotational ZPE          0.000 [kcal/mol]        0.000 [kJ/mol]       0.00000000 [Eh]
    Vibrational ZPE         4.560 [kcal/mol]       19.079 [kJ/mol]       0.00726677 [Eh]        1594.872 [cm^-1]
  Correction ZPE            4.560 [kcal/mol]       19.079 [kJ/mol]       0.00726677 [Eh]        1594.872 [cm^-1]
  Total ZPE, Electronic energy at 0 [K]                               -548.65174003 [Eh]

  Thermal Energy, E (includes ZPE)
    Electronic E            0.000 [kcal/mol]        0.000 [kJ/mol]       0.00000000 [Eh]
    Translational E         0.889 [kcal/mol]        3.718 [kJ/mol]       0.00141628 [Eh]
    Rotational E            0.889 [kcal/mol]        3.718 [kJ/mol]       0.00141628 [Eh]
    Vibrational E           4.702 [kcal/mol]       19.675 [kJ/mol]       0.00749388 [Eh]
  Correction E              6.480 [kcal/mol]       27.112 [kJ/mol]       0.01032643 [Eh]
  Total E, Electronic energy at  298.15 [K]                           -548.64868037 [Eh]

  Enthalpy, H_trans = E_trans + k_B * T
    Electronic H            0.000 [kcal/mol]        0.000 [kJ/mol]       0.00000000 [Eh]
    Translational H         1.481 [kcal/mol]        6.197 [kJ/mol]       0.00236046 [Eh]
    Rotational H            0.889 [kcal/mol]        3.718 [kJ/mol]       0.00141628 [Eh]
    Vibrational H           4.702 [kcal/mol]       19.675 [kJ/mol]       0.00749388 [Eh]
  Correction H              7.072 [kcal/mol]       29.591 [kJ/mol]       0.01127061 [Eh]
  Total H, Enthalpy at  298.15 [K]                                    -548.64773619 [Eh]

  Gibbs free energy, G = H - T * S
    Electronic G            0.000 [kcal/mol]        0.000 [kJ/mol]       0.00000000 [Eh]
    Translational G        -9.964 [kcal/mol]      -41.687 [kJ/mol]      -0.01587793 [Eh]
    Rotational G           -5.135 [kcal/mol]      -21.486 [kJ/mol]      -0.00818368 [Eh]
    Vibrational G           4.509 [kcal/mol]       18.865 [kJ/mol]       0.00718549 [Eh]
  Correction G            -10.590 [kcal/mol]      -44.308 [kJ/mol]      -0.01687612 [Eh]
  Total G, Free enthalpy at  298.15 [K]                               -548.67588292 [Eh]

*** Psi4 exiting successfully. Buy a developer a beer!
