                               Psi4 1.3.2 release

  ==> Input File <==

--------------------------------------------------------------------------
memory 144 GB

molecule {
0 1
C -0.0479167327 0.6682939561 0.0000000000
H -1.0907101856 0.9776732069 0.0000000000
H 0.4344161461 1.0815239129 0.8898543791
H 0.4344161461 1.0815239129 -0.8898543791
O -0.0410920225 -0.7509554452 0.0000000000
H 0.8712936485 -1.0420305436 0.0000000000
}

set dynamic_level 1
set basis aug-cc-pV(T+d)Z

optimize("wB97M-V")
frequencies("wB97M-V")
--------------------------------------------------------------------------

    Molecular point group: cs
  Charge       = 0
  Multiplicity = 1
  Basis Set: AUG-CC-PV(T+D)Z
    Blend: AUG-CC-PV(T+D)Z
  Basis Set: (AUG-CC-PV(T+D)Z AUX)
    Blend: AUG-CC-PVTZ-JKFIT
  @DF-RKS Final Energy:  -115.71540230258341
    Total Energy =                       -115.7154023025834135
    Molecular point group: cs
  Basis Set: AUG-CC-PV(T+D)Z
    Blend: AUG-CC-PV(T+D)Z
  Basis Set: (AUG-CC-PV(T+D)Z AUX)
    Blend: AUG-CC-PVTZ-JKFIT
  @DF-RKS Final Energy:  -115.71540349958205
    Total Energy =                       -115.7154034995820524
  Basis Set: AUG-CC-PV(T+D)Z
    Blend: AUG-CC-PV(T+D)Z
  Basis Set: (AUG-CC-PV(T+D)Z AUX)
    Blend: AUG-CC-PVTZ-JKFIT
  @DF-RKS Final Energy:  -115.71539722313432
    Total Energy =                       -115.7153972231343175
  Basis Set: AUG-CC-PV(T+D)Z
    Blend: AUG-CC-PV(T+D)Z
  Basis Set: (AUG-CC-PV(T+D)Z AUX)
    Blend: AUG-CC-PVTZ-JKFIT
  @DF-RKS Final Energy:  -115.71539929131971
    Total Energy =                       -115.7153992913197129
  @DF-RKS Final Energy:  -115.71540371099688
    Total Energy =                       -115.7154037109968812
  @DF-RKS Final Energy:  -115.71539677439951
    Total Energy =                       -115.7153967743995082
  @DF-RKS Final Energy:  -115.71540044493645
    Total Energy =                       -115.7154004449364493
  @DF-RKS Final Energy:  -115.71540070727927
    Total Energy =                       -115.7154007072792723
  @DF-RKS Final Energy:  -115.71540160665960
    Total Energy =                       -115.7154016066595972
  @DF-RKS Final Energy:  -115.71540725718008
    Total Energy =                       -115.7154072571800754
  @DF-RKS Final Energy:  -115.71539497705950
    Total Energy =                       -115.7153949770595034
  @DF-RKS Final Energy:  -115.71539985693052
    Total Energy =                       -115.7153998569305173
  @DF-RKS Final Energy:  -115.71540264046513
    Total Energy =                       -115.7154026404651290
  @DF-RKS Final Energy:  -115.71540115355515
    Total Energy =                       -115.7154011535551632
  @DF-RKS Final Energy:  -115.71539702831818
    Total Energy =                       -115.7153970283181934
  @DF-RKS Final Energy:  -115.71540334960697
    Total Energy =                       -115.7154033496069729
  @DF-RKS Final Energy:  -115.71538695245002
    Total Energy =                       -115.7153869524500180
  @DF-RKS Final Energy:  -115.71541669836651
    Total Energy =                       -115.7154166983665107
  @DF-RKS Final Energy:  -115.71541357470278
    Total Energy =                       -115.7154135747027794
  @DF-RKS Final Energy:  -115.71541592201891
    Total Energy =                       -115.7154159220189058
  **** Optimization is complete! (in 3 steps) ****
    Final optimized geometry and variables:
  @DF-RKS Final Energy:  -115.71541011669490
    Total Energy =                       -115.7154101166948976
  @DF-RKS Final Energy:  -115.71540975932416
    Total Energy =                       -115.7154097593241460
  @DF-RKS Final Energy:  -115.71540791455656
    Total Energy =                       -115.7154079145565646
  @DF-RKS Final Energy:  -115.71540755865057
    Total Energy =                       -115.7154075586505684
  @DF-RKS Final Energy:  -115.71541615489561
    Total Energy =                       -115.7154161548956068
  @DF-RKS Final Energy:  -115.71541669524611
    Total Energy =                       -115.7154166952461196
  @DF-RKS Final Energy:  -115.71541703597362
    Total Energy =                       -115.7154170359736014
  @DF-RKS Final Energy:  -115.71541603703690
    Total Energy =                       -115.7154160370369027
  @DF-RKS Final Energy:  -115.71541348450015
    Total Energy =                       -115.7154134845001465
  @DF-RKS Final Energy:  -115.71541348526726
    Total Energy =                       -115.7154134852672627
  @DF-RKS Final Energy:  -115.71541699527812
    Total Energy =                       -115.7154169952781189
  @DF-RKS Final Energy:  -115.71541699277657
    Total Energy =                       -115.7154169927765679
  @DF-RKS Final Energy:  -115.71541757706959
    Total Energy =                       -115.7154175770695872
  @DF-RKS Final Energy:  -115.71541757480534
    Total Energy =                       -115.7154175748053433
  @DF-RKS Final Energy:  -115.71541678375918
    Total Energy =                       -115.7154167837591814
  @DF-RKS Final Energy:  -115.71541678364525
    Total Energy =                       -115.7154167836452388
  Basis Set: AUG-CC-PV(T+D)Z
    Blend: AUG-CC-PV(T+D)Z
  Basis Set: (AUG-CC-PV(T+D)Z AUX)
    Blend: AUG-CC-PVTZ-JKFIT
  @DF-RKS Final Energy:  -115.71541596977522
    Total Energy =                       -115.7154159697752078
  Basis Set: AUG-CC-PV(T+D)Z
    Blend: AUG-CC-PV(T+D)Z
  Basis Set: (AUG-CC-PV(T+D)Z AUX)
    Blend: AUG-CC-PVTZ-JKFIT
  @DF-RKS Final Energy:  -115.71541596737119
    Total Energy =                       -115.7154159673711717
  Multiplicity = 1
  Basis Set: AUG-CC-PV(T+D)Z
    Blend: AUG-CC-PV(T+D)Z
  Basis Set: (AUG-CC-PV(T+D)Z AUX)
    Blend: AUG-CC-PVTZ-JKFIT
  @DF-RKS Final Energy:  -115.71541276194479
    Total Energy =                       -115.7154127619447763
    Molecular point group: c1

    Geometry (in Angstrom), charge = 0, multiplicity = 1:

       Center              X                  Y                   Z               Mass
    ------------   -----------------  -----------------  -----------------  -----------------
         C           -0.028637144337     0.727615123861     0.000000000000    12.000000000000
         H           -1.069802921398     1.039246893946     0.000000000000     1.007825032230
         H            0.453319509325     1.136475218895     0.888628440713     1.007825032230
         H            0.455589474558     1.140290523162    -0.890672223181     1.007825032230
         O           -0.024192108450    -0.692113755840     0.000200871353    15.994914619570
         H            0.885817825887    -0.995253704090    -0.001144191678     1.007825032230

  Charge       = 0
  Multiplicity = 1
  Basis Set: AUG-CC-PV(T+D)Z
    Blend: AUG-CC-PV(T+D)Z
  Basis Set: (AUG-CC-PV(T+D)Z AUX)
    Blend: AUG-CC-PVTZ-JKFIT

    Orbital Energies [Eh]
    ---------------------

    Doubly Occupied:

       1A    -19.336201     2A    -10.382951     3A     -1.149800
       4A     -0.803730     5A     -0.618090     6A     -0.549184
       7A     -0.532792     8A     -0.443363     9A     -0.384537

  @DF-RKS Final Energy:  -115.71541276219588

   => Energetics <=

    Nuclear Repulsion Energy =             40.3427266557595416
    One-Electron Energy =                -236.9420204482948975
    Two-Electron Energy =                  91.7109930438397924
    DFT Exchange-Correlation Energy =     -10.9007019509364866
    Empirical Dispersion Energy =           0.0000000000000000
    VV10 Nonlocal Energy =                  0.0735899374361632
    Total Energy =                       -115.7154127621958821

  Dipole Moment: [D]
     X:     1.3531      Y:     0.9667      Z:     0.0006     Total:     1.6629

  Vibration                       7                   8                   9
  Freq [cm^-1]                 260.1423           1060.7529           1088.2273
  Irrep                          App                  Ap                  Ap
  Reduced mass [u]              1.0699              1.4697              2.6599
  Force const [mDyne/A]         0.0427              0.9743              1.8559

  Vibration                       10                  11                  12
  Freq [cm^-1]                1171.1346           1366.4794           1469.3828
  Irrep                          App                  Ap                  Ap
  Reduced mass [u]              1.2717              1.2925              1.1374
  Force const [mDyne/A]         1.0276              1.4220              1.4468

  Vibration                       13                  14                  15
  Freq [cm^-1]                1490.3124           1503.2036           3020.9017
  Irrep                          App                  Ap                  Ap
  Reduced mass [u]              1.0450              1.0422              1.0352
  Force const [mDyne/A]         1.3675              1.3875              5.5660

  Vibration                       16                  17                  18
  Freq [cm^-1]                3069.6287           3135.1258           3867.7087
  Irrep                          App                  Ap                  Ap
  Reduced mass [u]              1.1056              1.0984              1.0667
  Force const [mDyne/A]         6.1376              6.3608              9.4013

  ==> Thermochemistry Components <==

  Entropy, S
    Electronic S            0.000 [cal/(mol K)]        0.000 [J/(mol K)]       0.00000000 [mEh/K] (multiplicity = 1)
    Translational S        36.324 [cal/(mol K)]      151.980 [J/(mol K)]       0.05788598 [mEh/K] (mol. weight = 32.0262 [u], P = 101325.00 [Pa])
    Rotational S           18.978 [cal/(mol K)]       79.406 [J/(mol K)]       0.03024401 [mEh/K] (symmetry no. = 1)
    Vibrational S           1.904 [cal/(mol K)]        7.966 [J/(mol K)]       0.00303411 [mEh/K]
  Total S                  57.206 [cal/(mol K)]      239.351 [J/(mol K)]       0.09116410 [mEh/K]
  Correction S              0.000 [cal/(mol K)]        0.000 [J/(mol K)]       0.00000000 [mEh/K]

  Constant volume heat capacity, Cv
    Electronic Cv           0.000 [cal/(mol K)]        0.000 [J/(mol K)]       0.00000000 [mEh/K]
    Translational Cv        2.981 [cal/(mol K)]       12.472 [J/(mol K)]       0.00475022 [mEh/K]
    Rotational Cv           2.981 [cal/(mol K)]       12.472 [J/(mol K)]       0.00475022 [mEh/K]
    Vibrational Cv          2.929 [cal/(mol K)]       12.257 [J/(mol K)]       0.00466845 [mEh/K]
  Total Cv                  8.891 [cal/(mol K)]       37.200 [J/(mol K)]       0.01416888 [mEh/K]
  Correction Cv             0.000 [cal/(mol K)]        0.000 [J/(mol K)]       0.00000000 [mEh/K]

  Constant pressure heat capacity, Cp
    Electronic Cp           0.000 [cal/(mol K)]        0.000 [J/(mol K)]       0.00000000 [mEh/K]
    Translational Cp        4.968 [cal/(mol K)]       20.786 [J/(mol K)]       0.00791703 [mEh/K]
    Rotational Cp           2.981 [cal/(mol K)]       12.472 [J/(mol K)]       0.00475022 [mEh/K]
    Vibrational Cp          2.929 [cal/(mol K)]       12.257 [J/(mol K)]       0.00466845 [mEh/K]
  Total Cp                 10.878 [cal/(mol K)]       45.515 [J/(mol K)]       0.01733569 [mEh/K]
  Correction Cp             0.000 [cal/(mol K)]        0.000 [J/(mol K)]       0.00000000 [mEh/K]

  ==> Thermochemistry Energy Analysis <==

  Raw electronic energy, E0
  Total E0, Electronic energy at well bottom at 0 [K]                 -115.71541803 [Eh]

  Zero-point energy, ZPE_vib = Sum_i nu_i / 2
    Electronic ZPE          0.000 [kcal/mol]        0.000 [kJ/mol]       0.00000000 [Eh]
    Translational ZPE       0.000 [kcal/mol]        0.000 [kJ/mol]       0.00000000 [Eh]
    Rotational ZPE          0.000 [kcal/mol]        0.000 [kJ/mol]       0.00000000 [Eh]
    Vibrational ZPE        32.170 [kcal/mol]      134.598 [kJ/mol]       0.05126561 [Eh]       11251.500 [cm^-1]
  Correction ZPE           32.170 [kcal/mol]      134.598 [kJ/mol]       0.05126561 [Eh]       11251.500 [cm^-1]
  Total ZPE, Electronic energy at 0 [K]                               -115.66415242 [Eh]

  Thermal Energy, E (includes ZPE)
    Electronic E            0.000 [kcal/mol]        0.000 [kJ/mol]       0.00000000 [Eh]
    Translational E         0.889 [kcal/mol]        3.718 [kJ/mol]       0.00141628 [Eh]
    Rotational E            0.889 [kcal/mol]        3.718 [kJ/mol]       0.00141628 [Eh]
    Vibrational E          32.528 [kcal/mol]      136.096 [kJ/mol]       0.05183611 [Eh]
  Correction E             34.305 [kcal/mol]      143.533 [kJ/mol]       0.05466866 [Eh]
  Total E, Electronic energy at  298.15 [K]                           -115.66074937 [Eh]

  Enthalpy, H_trans = E_trans + k_B * T
    Electronic H            0.000 [kcal/mol]        0.000 [kJ/mol]       0.00000000 [Eh]
    Translational H         1.481 [kcal/mol]        6.197 [kJ/mol]       0.00236046 [Eh]
    Rotational H            0.889 [kcal/mol]        3.718 [kJ/mol]       0.00141628 [Eh]
    Vibrational H          32.528 [kcal/mol]      136.096 [kJ/mol]       0.05183611 [Eh]
  Correction H             34.898 [kcal/mol]      146.012 [kJ/mol]       0.05561285 [Eh]
  Total H, Enthalpy at  298.15 [K]                                    -115.65980518 [Eh]

  Gibbs free energy, G = H - T * S
    Electronic G            0.000 [kcal/mol]        0.000 [kJ/mol]       0.00000000 [Eh]
    Translational G        -9.349 [kcal/mol]      -39.115 [kJ/mol]      -0.01489824 [Eh]
    Rotational G           -4.770 [kcal/mol]      -19.956 [kJ/mol]      -0.00760098 [Eh]
    Vibrational G          31.960 [kcal/mol]      133.721 [kJ/mol]       0.05093149 [Eh]
  Correction G             17.842 [kcal/mol]       74.649 [kJ/mol]       0.02843227 [Eh]
  Total G, Free enthalpy at  298.15 [K]                               -115.68698576 [Eh]

*** Psi4 exiting successfully. Buy a developer a beer!
