                               Psi4 1.3.2 release

  ==> Input File <==

--------------------------------------------------------------------------
memory 144 GB

molecule {
0 3
S 0.0000000000 0.0000000000 0.0000000000
S 0.0000000000 0.0000000000 1.8968845900
}

set reference uks
set dynamic_level 1
set basis aug-cc-pV(T+d)Z

optimize("wB97M-V")
frequencies("wB97M-V")
--------------------------------------------------------------------------

    Molecular point group: d2h
  Charge       = 0
  Multiplicity = 3
  Basis Set: AUG-CC-PV(T+D)Z
    Blend: AUG-CC-PV(T+D)Z
  Basis Set: (AUG-CC-PV(T+D)Z AUX)
    Blend: AUG-CC-PVTZ-JKFIT
  @DF-UKS Final Energy:  -796.36455384524606
    Total Energy =                       -796.3645538452460642
    Molecular point group: d2h
  Basis Set: AUG-CC-PV(T+D)Z
    Blend: AUG-CC-PV(T+D)Z
  Basis Set: (AUG-CC-PV(T+D)Z AUX)
    Blend: AUG-CC-PVTZ-JKFIT
  @DF-UKS Final Energy:  -796.36454272591027
    Total Energy =                       -796.3645427259102689
  Basis Set: AUG-CC-PV(T+D)Z
    Blend: AUG-CC-PV(T+D)Z
  Basis Set: (AUG-CC-PV(T+D)Z AUX)
    Blend: AUG-CC-PVTZ-JKFIT
  @DF-UKS Final Energy:  -796.36456444989631
    Total Energy =                       -796.3645644498963065
  Basis Set: AUG-CC-PV(T+D)Z
    Blend: AUG-CC-PV(T+D)Z
  Basis Set: (AUG-CC-PV(T+D)Z AUX)
    Blend: AUG-CC-PVTZ-JKFIT
  @DF-UKS Final Energy:  -796.36465449983734
    Total Energy =                       -796.3646544998373429
  @DF-UKS Final Energy:  -796.36465073685315
    Total Energy =                       -796.3646507368528091
  @DF-UKS Final Energy:  -796.36465772797555
    Total Energy =                       -796.3646577279754410
  @DF-UKS Final Energy:  -796.36466574531164
    Total Energy =                       -796.3646657453115267
  @DF-UKS Final Energy:  -796.36466558665802
    Total Energy =                       -796.3646655866580204
  @DF-UKS Final Energy:  -796.36466535481611
    Total Energy =                       -796.3646653548159975
  **** Optimization is complete! (in 3 steps) ****
    Final optimized geometry and variables:
  @DF-UKS Final Energy:  -796.36466574531175
    Total Energy =                       -796.3646657453119815
  @DF-UKS Final Energy:  -796.36466558665836
    Total Energy =                       -796.3646655866581341
  Basis Set: AUG-CC-PV(T+D)Z
    Blend: AUG-CC-PV(T+D)Z
  Basis Set: (AUG-CC-PV(T+D)Z AUX)
    Blend: AUG-CC-PVTZ-JKFIT
  @DF-UKS Final Energy:  -796.36466535481554
    Total Energy =                       -796.3646653548156564
  Basis Set: AUG-CC-PV(T+D)Z
    Blend: AUG-CC-PV(T+D)Z
  Basis Set: (AUG-CC-PV(T+D)Z AUX)
    Blend: AUG-CC-PVTZ-JKFIT
  @DF-UKS Final Energy:  -796.36466574531130
    Total Energy =                       -796.3646657453112994
  Multiplicity = 3
  Basis Set: AUG-CC-PV(T+D)Z
    Blend: AUG-CC-PV(T+D)Z
  Basis Set: (AUG-CC-PV(T+D)Z AUX)
    Blend: AUG-CC-PVTZ-JKFIT
  @DF-UKS Final Energy:  -796.36466558665802
    Total Energy =                       -796.3646655866579067
    Molecular point group: d2h

    Geometry (in Angstrom), charge = 0, multiplicity = 3:

       Center              X                  Y                   Z               Mass
    ------------   -----------------  -----------------  -----------------  -----------------
         S            0.000000000000     0.000000000000    -0.941296683202    31.972071174400
         S            0.000000000000     0.000000000000     0.941296683202    31.972071174400

  Charge       = 0
  Multiplicity = 3
  Basis Set: AUG-CC-PV(T+D)Z
    Blend: AUG-CC-PV(T+D)Z
  Basis Set: (AUG-CC-PV(T+D)Z AUX)
    Blend: AUG-CC-PVTZ-JKFIT

    Orbital Energies [Eh]
    ---------------------

    Alpha Occupied:

       1B1u  -89.259866     1Ag   -89.259864     2Ag    -8.171081
       2B1u   -8.170906     1B3u   -6.080269     1B2u   -6.080269
       1B2g   -6.080222     1B3g   -6.080222     3Ag    -6.078601
       3B1u   -6.077800     4Ag    -0.963058     4B1u   -0.744993
       5Ag    -0.496520     2B3u   -0.480292     2B2u   -0.480292
       2B3g   -0.331753     2B2g   -0.331753

    Alpha Virtual:

       5B1u    0.029002     6Ag     0.065451     3B3u    0.066832
       3B2u    0.066832     7Ag     0.082244     3B3g    0.095472
       3B2g    0.095472     6B1u    0.099697     1B1g    0.180600
       8Ag     0.180600     7B1u    0.196176     4B2u    0.228399
       4B3u    0.228399     9Ag     0.264608     1Au     0.290616
       8B1u    0.290617     4B3g    0.357099     4B2g    0.357099
       9B1u    0.362111     5B3u    0.447037     5B2u    0.447037
       6B2u    0.525454     6B3u    0.525454    10Ag     0.541007
      11Ag     0.541428     2B1g    0.541430    12Ag     0.544984
      10B1u    0.547656     5B3g    0.567660     5B2g    0.567660
      11B1u    0.625513     2Au     0.625513    13Ag     0.658936
       7B2u    0.700142     7B3u    0.700142     6B3g    0.719559
       6B2g    0.719559     3B1g    0.778479    14Ag     0.778480
       7B2g    0.852897     7B3g    0.852897    12B1u    0.860009
       8B2u    1.021034     8B3u    1.021034    13B1u    1.047361
       3Au     1.047367    14B1u    1.093775     8B3g    1.179740
       8B2g    1.179740    15Ag     1.269982    15B1u    1.379056
       4B1g    1.644238    16Ag     1.644275     9B2u    1.710999
       9B3u    1.710999    16B1u    1.723124     4Au     1.727357
      17B1u    1.727397     9B2g    1.857834     9B3g    1.857834
      17Ag     1.900632    18Ag     1.990906    19Ag     1.996876
       5B1g    1.996897    10B3u    2.001364    10B2u    2.001364
      11B3u    2.065416    11B2u    2.065416    12B3u    2.068563
      12B2u    2.068563    10B2g    2.141219    10B3g    2.141219
      18B1u    2.311046     5Au     2.311071    11B2g    2.327033
      11B3g    2.327033    19B1u    2.436591    12B3g    2.656435
      12B2g    2.656435    20Ag     2.668202    20B1u    3.612069
      21Ag     4.627587    21B1u    5.313143     6B1g    6.847263
      22Ag     6.847311    13B3u    6.881323    13B2u    6.881323
       6Au     6.883031    22B1u    6.883081    23Ag     6.987330
      13B2g    7.024458    13B3g    7.024458    23B1u    7.319282

    Beta Occupied:

       1B1u  -89.253656     1Ag   -89.253656     2Ag    -8.164900
       2B1u   -8.164653     3Ag    -6.074738     3B1u   -6.073936
       1B3u   -6.066904     1B2u   -6.066904     1B2g   -6.066842
       1B3g   -6.066842     4Ag    -0.937896     4B1u   -0.689135
       5Ag    -0.470569     2B2u   -0.424877     2B3u   -0.424877

    Beta Virtual:

       2B2g   -0.060861     2B3g   -0.060861     5B1u    0.029467
       6Ag     0.064004     3B3u    0.065907     3B2u    0.065907
       7Ag     0.084853     3B3g    0.096388     3B2g    0.096388
       6B1u    0.114972     8Ag     0.188844     1B1g    0.188845
       7B1u    0.197341     4B2u    0.248201     4B3u    0.248201
       9Ag     0.269042     1Au     0.298621     8B1u    0.298622
       4B3g    0.359017     4B2g    0.359017     9B1u    0.364550
       5B3u    0.456743     5B2u    0.456743    10Ag     0.539853
       6B2u    0.544464     6B3u    0.544464    10B1u    0.555965
      11Ag     0.556865    12Ag     0.560601     2B1g    0.560604
       5B3g    0.572871     5B2g    0.572871     2Au     0.659571
      11B1u    0.659574    13Ag     0.672829     7B2u    0.705277
       7B3u    0.705277     6B3g    0.741581     6B2g    0.741581
       3B1g    0.789846    14Ag     0.789854     7B2g    0.859403
       7B3g    0.859403    12B1u    0.875088     8B2u    1.027751
       8B3u    1.027751    13B1u    1.053518     3Au     1.053534
      14B1u    1.099357     8B3g    1.191400     8B2g    1.191400
      15Ag     1.300021    15B1u    1.410160     4B1g    1.692301
      16Ag     1.692321     9B2u    1.727785     9B3u    1.727785
      16B1u    1.736562     4Au     1.775043    17B1u    1.775062
       9B2g    1.903005     9B3g    1.903005    17Ag     1.909857
      18Ag     2.008473    19Ag     2.025444     5B1g    2.025446
      10B3u    2.027287    10B2u    2.027287    11B3u    2.116861
      11B2u    2.116861    12B3u    2.121437    12B2u    2.121437
      10B2g    2.191368    10B3g    2.191368    18B1u    2.345078
       5Au     2.345086    11B2g    2.359166    11B3g    2.359166
      19B1u    2.458602    20Ag     2.684129    12B3g    2.687621
      12B2g    2.687621    20B1u    3.622943    21Ag     4.653333
      21B1u    5.334773     6B1g    6.860773    22Ag     6.860802
      13B3u    6.887420    13B2u    6.887420     6Au     6.897309
      22B1u    6.897339    23Ag     6.992655    13B2g    7.031768
      13B3g    7.031768    23B1u    7.324854

    Final Occupation by Irrep:
             Ag   B1g   B2g   B3g    Au   B1u   B2u   B3u
    DOCC [     5,    0,    1,    1,    0,    4,    2,    2 ]
    SOCC [     0,    0,    1,    1,    0,    0,    0,    0 ]

  @DF-UKS Final Energy:  -796.36466535481554

   => Energetics <=

    Nuclear Repulsion Energy =             71.9589096344779477
    One-Electron Energy =               -1242.5088160068203251
    Two-Electron Energy =                 413.6272634148276666
    DFT Exchange-Correlation Energy =     -39.5755839585761180
    Empirical Dispersion Energy =           0.0000000000000000
    VV10 Nonlocal Energy =                  0.1335615612753142
    Total Energy =                       -796.3646653548154291

  UHF NO Occupations:
  HONO-2 :    2B3u 1.9979820
  HONO-1 :    2B2g 1.0000000
  HONO-0 :    2B3g 1.0000000
  LUNO+0 :    3B3u 0.0020180
  LUNO+1 :    3B2u 0.0020180
  LUNO+2 :    5B1u 0.0002624
  LUNO+3 :    6 Ag 0.0002062

Computation Completed

Properties will be evaluated at   0.000000,   0.000000,   0.000000 [a0]

Properties computed using the SCF density matrix

  Nuclear Dipole Moment: [e a0]
     X:     0.0000      Y:     0.0000      Z:     0.0000

  Electronic Dipole Moment: [e a0]
     X:     0.0000      Y:     0.0000      Z:     0.0000

  Dipole Moment: [e a0]
     X:     0.0000      Y:     0.0000      Z:     0.0000     Total:     0.0000

  Dipole Moment: [D]
     X:     0.0000      Y:     0.0000      Z:     0.0000     Total:     0.0000

*** tstop() called on bp1-compute00099.data.bp.acrc.priv at Tue Apr 27 17:36:37 2021
Module time:
	user time   =     189.84 seconds =       3.16 minutes
	system time =       6.89 seconds =       0.11 minutes
	total time  =          8 seconds =       0.13 minutes
Total time:
	user time   =    2302.46 seconds =      38.37 minutes
	system time =      92.32 seconds =       1.54 minutes
	total time  =        101 seconds =       1.68 minutes

         ----------------------------------------------------------
                                   FINDIF
                     R. A. King and Jonathon Misiewicz
         ---------------------------------------------------------

  Computing second-derivative from energies using projected,
  symmetry-adapted, cartesian coordinates.

  3 energies passed in, including the reference geometry.
    Using 3-point formula.
    Energy without displacement: -796.3646657453
    Check energies below for precision!
    0: -1 :      -796.3646655867
    0: 1  :      -796.3646653548

-------------------------------------------------------------

  ==> Harmonic Vibrational Analysis <==

  non-mass-weighted Hessian:       Symmetric? True   Hermitian? True   Lin Dep Dim?  5 (0)
  projection of translations (True) and rotations (True) removed 5 degrees of freedom (5)
  total projector:                 Symmetric? True   Hermitian? True   Lin Dep Dim?  5 (5)
  mass-weighted Hessian:           Symmetric? True   Hermitian? True   Lin Dep Dim?  5 (0)
  pre-proj  low-frequency mode:    0.0000  [cm^-1]
  pre-proj  low-frequency mode:    0.0000  [cm^-1]
  pre-proj  low-frequency mode:    0.0000  [cm^-1]
  pre-proj  low-frequency mode:    0.0000  [cm^-1]
  pre-proj  low-frequency mode:    0.0000  [cm^-1]
  pre-proj  all modes:['0.0000' '0.0000' '0.0000' '0.0000' '0.0000' '761.8674']
  projected mass-weighted Hessian: Symmetric? True   Hermitian? True   Lin Dep Dim?  5 (5)
  post-proj low-frequency mode:    0.0000i [cm^-1] (TR)
  post-proj low-frequency mode:    0.0000  [cm^-1] (TR)
  post-proj low-frequency mode:    0.0000  [cm^-1] (TR)
  post-proj low-frequency mode:    0.0000  [cm^-1] (TR)
  post-proj low-frequency mode:    0.0000  [cm^-1] (TR)
  post-proj  all modes:['0.0000i' '0.0000' '0.0000' '0.0000' '0.0000' '761.8674']

  Vibration                       6
  Freq [cm^-1]                 761.8674
  Irrep                           Ag
  Reduced mass [u]             31.9721
  Force const [mDyne/A]        10.9340
  Turning point v=0 [a0]        0.0703
  RMS dev v=0 [a0 u^1/2]        0.2811
  Char temp [K]               1096.1575
  ----------------------------------------------------------------------------------
      1   S                0.00  0.00  0.71
      2   S                0.00  0.00 -0.71

  ==> Thermochemistry Components <==

  Entropy, S
    Electronic S            2.183 [cal/(mol K)]        9.134 [J/(mol K)]       0.00347910 [mEh/K] (multiplicity = 3)
    Translational S        38.385 [cal/(mol K)]      160.603 [J/(mol K)]       0.06117054 [mEh/K] (mol. weight = 63.9441 [u], P = 101325.00 [Pa])
    Rotational S           13.619 [cal/(mol K)]       56.984 [J/(mol K)]       0.02170396 [mEh/K] (symmetry no. = 2)
    Vibrational S           0.241 [cal/(mol K)]        1.007 [J/(mol K)]       0.00038353 [mEh/K]
  Total S                  54.428 [cal/(mol K)]      227.728 [J/(mol K)]       0.08673713 [mEh/K]
  Correction S              0.000 [cal/(mol K)]        0.000 [J/(mol K)]       0.00000000 [mEh/K]

  Constant volume heat capacity, Cv
    Electronic Cv           0.000 [cal/(mol K)]        0.000 [J/(mol K)]       0.00000000 [mEh/K]
    Translational Cv        2.981 [cal/(mol K)]       12.472 [J/(mol K)]       0.00475022 [mEh/K]
    Rotational Cv           1.987 [cal/(mol K)]        8.314 [J/(mol K)]       0.00316681 [mEh/K]
    Vibrational Cv          0.716 [cal/(mol K)]        2.994 [J/(mol K)]       0.00114043 [mEh/K]
  Total Cv                  5.684 [cal/(mol K)]       23.780 [J/(mol K)]       0.00905746 [mEh/K]
  Correction Cv             0.000 [cal/(mol K)]        0.000 [J/(mol K)]       0.00000000 [mEh/K]

  Constant pressure heat capacity, Cp
    Electronic Cp           0.000 [cal/(mol K)]        0.000 [J/(mol K)]       0.00000000 [mEh/K]
    Translational Cp        4.968 [cal/(mol K)]       20.786 [J/(mol K)]       0.00791703 [mEh/K]
    Rotational Cp           1.987 [cal/(mol K)]        8.314 [J/(mol K)]       0.00316681 [mEh/K]
    Vibrational Cp          0.716 [cal/(mol K)]        2.994 [J/(mol K)]       0.00114043 [mEh/K]
  Total Cp                  7.671 [cal/(mol K)]       32.095 [J/(mol K)]       0.01222427 [mEh/K]
  Correction Cp             0.000 [cal/(mol K)]        0.000 [J/(mol K)]       0.00000000 [mEh/K]

  ==> Thermochemistry Energy Analysis <==

  Raw electronic energy, E0
  Total E0, Electronic energy at well bottom at 0 [K]                 -796.36466575 [Eh]

  Zero-point energy, ZPE_vib = Sum_i nu_i / 2
    Electronic ZPE          0.000 [kcal/mol]        0.000 [kJ/mol]       0.00000000 [Eh]
    Translational ZPE       0.000 [kcal/mol]        0.000 [kJ/mol]       0.00000000 [Eh]
    Rotational ZPE          0.000 [kcal/mol]        0.000 [kJ/mol]       0.00000000 [Eh]
    Vibrational ZPE         1.089 [kcal/mol]        4.557 [kJ/mol]       0.00173566 [Eh]         380.934 [cm^-1]
  Correction ZPE            1.089 [kcal/mol]        4.557 [kJ/mol]       0.00173566 [Eh]         380.934 [cm^-1]
  Total ZPE, Electronic energy at 0 [K]                               -796.36293008 [Eh]

  Thermal Energy, E (includes ZPE)
    Electronic E            0.000 [kcal/mol]        0.000 [kJ/mol]       0.00000000 [Eh]
    Translational E         0.889 [kcal/mol]        3.718 [kJ/mol]       0.00141628 [Eh]
    Rotational E            0.592 [kcal/mol]        2.479 [kJ/mol]       0.00094418 [Eh]
    Vibrational E           1.146 [kcal/mol]        4.794 [kJ/mol]       0.00182580 [Eh]
  Correction E              2.627 [kcal/mol]       10.991 [kJ/mol]       0.00418627 [Eh]
  Total E, Electronic energy at  298.15 [K]                           -796.36047948 [Eh]

  Enthalpy, H_trans = E_trans + k_B * T
    Electronic H            0.000 [kcal/mol]        0.000 [kJ/mol]       0.00000000 [Eh]
    Translational H         1.481 [kcal/mol]        6.197 [kJ/mol]       0.00236046 [Eh]
    Rotational H            0.592 [kcal/mol]        2.479 [kJ/mol]       0.00094418 [Eh]
    Vibrational H           1.146 [kcal/mol]        4.794 [kJ/mol]       0.00182580 [Eh]
  Correction H              3.219 [kcal/mol]       13.470 [kJ/mol]       0.00513045 [Eh]
  Total H, Enthalpy at  298.15 [K]                                    -796.35953529 [Eh]

  Gibbs free energy, G = H - T * S
    Electronic G           -0.651 [kcal/mol]       -2.723 [kJ/mol]      -0.00103729 [Eh]
    Translational G        -9.963 [kcal/mol]      -41.686 [kJ/mol]      -0.01587754 [Eh]
    Rotational G           -3.468 [kcal/mol]      -14.511 [kJ/mol]      -0.00552685 [Eh]
    Vibrational G           1.074 [kcal/mol]        4.493 [kJ/mol]       0.00171146 [Eh]
  Correction G            -13.008 [kcal/mol]      -54.427 [kJ/mol]      -0.02073022 [Eh]
  Total G, Free enthalpy at  298.15 [K]                               -796.38539597 [Eh]

    Psi4 stopped on: Tuesday, 27 April 2021 05:36PM
    Psi4 wall time for execution: 0:01:41.84

*** Psi4 exiting successfully. Buy a developer a beer!
