                               Psi4 1.3.2 release

  ==> Input File <==

--------------------------------------------------------------------------
memory 144 GB

molecule {
0 3
S 0.0000000000 0.0000000000 0.0000000000
O 0.0000000000 0.0000000000 1.4862145500
}

set reference uks
set dynamic_level 1
set basis aug-cc-pV(T+d)Z

optimize("wB97M-V")
frequencies("wB97M-V")
--------------------------------------------------------------------------

    Molecular point group: c2v
  Charge       = 0
  Multiplicity = 3
  Basis Set: AUG-CC-PV(T+D)Z
    Blend: AUG-CC-PV(T+D)Z
  Basis Set: (AUG-CC-PV(T+D)Z AUX)
    Blend: AUG-CC-PVTZ-JKFIT
  @DF-UKS Final Energy:  -473.37571505826276
    Total Energy =                       -473.3757150582627560
    Molecular point group: c2v
  Basis Set: AUG-CC-PV(T+D)Z
    Blend: AUG-CC-PV(T+D)Z
  Basis Set: (AUG-CC-PV(T+D)Z AUX)
    Blend: AUG-CC-PVTZ-JKFIT
  @DF-UKS Final Energy:  -473.37570293197246
    Total Energy =                       -473.3757029319723983
  Basis Set: AUG-CC-PV(T+D)Z
    Blend: AUG-CC-PV(T+D)Z
  Basis Set: (AUG-CC-PV(T+D)Z AUX)
    Blend: AUG-CC-PVTZ-JKFIT
  @DF-UKS Final Energy:  -473.37572585148155
    Total Energy =                       -473.3757258514816044
  Basis Set: AUG-CC-PV(T+D)Z
    Blend: AUG-CC-PV(T+D)Z
  Basis Set: (AUG-CC-PV(T+D)Z AUX)
    Blend: AUG-CC-PVTZ-JKFIT
  @DF-UKS Final Energy:  -473.37575962114192
    Total Energy =                       -473.3757596211419241
  @DF-UKS Final Energy:  -473.37575558456774
    Total Energy =                       -473.3757555845676848
  @DF-UKS Final Energy:  -473.37576228746138
    Total Energy =                       -473.3757622874613844
  @DF-UKS Final Energy:  -473.37576370496009
    Total Energy =                       -473.3757637049600930
  @DF-UKS Final Energy:  -473.37576307914196
    Total Energy =                       -473.3757630791419047
  @DF-UKS Final Energy:  -473.37576294432876
    Total Energy =                       -473.3757629443288124
  **** Optimization is complete! (in 3 steps) ****
    Final optimized geometry and variables:
  @DF-UKS Final Energy:  -473.37576370492053
    Total Energy =                       -473.3757637049205300
  @DF-UKS Final Energy:  -473.37576307944187
    Total Energy =                       -473.3757630794418674
  Basis Set: AUG-CC-PV(T+D)Z
    Blend: AUG-CC-PV(T+D)Z
  Basis Set: (AUG-CC-PV(T+D)Z AUX)
    Blend: AUG-CC-PVTZ-JKFIT
  @DF-UKS Final Energy:  -473.37576294424036
    Total Energy =                       -473.3757629442404209
  Basis Set: AUG-CC-PV(T+D)Z
    Blend: AUG-CC-PV(T+D)Z
  Basis Set: (AUG-CC-PV(T+D)Z AUX)
    Blend: AUG-CC-PVTZ-JKFIT
  @DF-UKS Final Energy:  -473.37576370492064
    Total Energy =                       -473.3757637049204732
  Multiplicity = 3
  Basis Set: AUG-CC-PV(T+D)Z
    Blend: AUG-CC-PV(T+D)Z
  Basis Set: (AUG-CC-PV(T+D)Z AUX)
    Blend: AUG-CC-PVTZ-JKFIT
  @DF-UKS Final Energy:  -473.37576307944192
    Total Energy =                       -473.3757630794420379
    Molecular point group: c2v

    Geometry (in Angstrom), charge = 0, multiplicity = 3:

       Center              X                  Y                   Z               Mass
    ------------   -----------------  -----------------  -----------------  -----------------
         S            0.000000000000     0.000000000000    -0.493026242498    31.972071174400
         O            0.000000000000     0.000000000000     0.985505111525    15.994914619570

  Charge       = 0
  Multiplicity = 3
  Basis Set: AUG-CC-PV(T+D)Z
    Blend: AUG-CC-PV(T+D)Z
  Basis Set: (AUG-CC-PV(T+D)Z AUX)
    Blend: AUG-CC-PVTZ-JKFIT

    Orbital Energies [Eh]
    ---------------------

    Alpha Occupied:

       1A1   -89.302125     2A1   -19.412932     3A1    -8.209835
       1B1    -6.119946     1B2    -6.119946     4A1    -6.117074
       5A1    -1.223956     6A1    -0.803764     2B2    -0.570269
       2B1    -0.570269     7A1    -0.565231     3B2    -0.356778
       3B1    -0.356778

    Alpha Virtual:

       8A1     0.035054     9A1     0.055270     4B1     0.065209
       4B2     0.065209    10A1     0.117319    11A1     0.160117
       5B2     0.164068     5B1     0.164068    12A1     0.205354
       1A2     0.205355    13A1     0.290702     6B1     0.299184
       6B2     0.299184    14A1     0.374858     7B1     0.442260
       7B2     0.442260    15A1     0.481274    16A1     0.552147
       2A2     0.552147     8B1     0.585393     8B2     0.585393
      17A1     0.592580    18A1     0.630764     3A2     0.630765
       9B2     0.746864     9B1     0.746864    10B2     0.786219
      10B1     0.786219    19A1     0.791871    20A1     0.909574
       4A2     0.909576    11B1     0.913110    11B2     0.913110
      21A1     0.913670    22A1     0.996847    12B1     1.133461
      12B2     1.133461    23A1     1.301199    24A1     1.632395
       5A2     1.632411    25A1     1.689571    13B1     1.731352
      13B2     1.731352    26A1     1.732248    27A1     1.840476
       6A2     1.840477    14B2     1.912042    14B1     1.912042
      15B1     1.933399    15B2     1.933399    16B1     2.067281
      16B2     2.067281    28A1     2.154441     7A2     2.154446
      17B1     2.203350    17B2     2.203350    29A1     2.221200
      30A1     2.367630     8A2     2.367637    18B1     2.377164
      18B2     2.377164    31A1     2.402282    32A1     2.672039
      19B1     2.936240    19B2     2.936240    33A1     3.377077
      20B2     4.006495    20B1     4.006495    34A1     4.442881
      35A1     5.599046    21B1     6.101853    21B2     6.101853
       9A2     6.222441    36A1     6.222475    22B2     6.315341
      22B1     6.315341    37A1     6.329110    10A2     6.589956
      38A1     6.589969    23B2     6.781127    23B1     6.781127
      39A1     6.821934    11A2     6.821961    40A1     6.947307
      24B1     7.155099    24B2     7.155099    41A1     8.277693
      42A1    10.889003

    Beta Occupied:

       1A1   -89.294806     2A1   -19.391642     3A1    -8.202527
       4A1    -6.112647     1B1    -6.104117     1B2    -6.104117
       5A1    -1.185022     6A1    -0.740100     7A1    -0.530237
       2B1    -0.498635     2B2    -0.498635

    Beta Virtual:

       3B1    -0.045636     3B2    -0.045636     8A1     0.038862
       9A1     0.052280     4B1     0.066258     4B2     0.066258
      10A1     0.130899    11A1     0.164175     5B1     0.168658
       5B2     0.168658    12A1     0.213988     1A2     0.213988
      13A1     0.297186     6B1     0.311591     6B2     0.311591
      14A1     0.377990     7B1     0.450250     7B2     0.450250
      15A1     0.495216    16A1     0.577636     2A2     0.577636
      17A1     0.596810     8B1     0.611582     8B2     0.611582
      18A1     0.650776     3A2     0.650777     9B2     0.754558
       9B1     0.754558    10B1     0.804856    10B2     0.804856
      19A1     0.807741    20A1     0.914586     4A2     0.914588
      11B1     0.924917    11B2     0.924917    21A1     0.926995
      22A1     1.008222    12B1     1.143889    12B2     1.143889
      23A1     1.337327    24A1     1.691916     5A2     1.691922
      25A1     1.703392    26A1     1.745585    13B1     1.781522
      13B2     1.781522     6A2     1.865790    27A1     1.865794
      14B1     1.937559    14B2     1.937559    15B2     1.937935
      15B1     1.937935    16B1     2.133598    16B2     2.133598
      28A1     2.181060     7A2     2.181076    29A1     2.239560
      17B2     2.243931    17B1     2.243931    18B1     2.401886
      18B2     2.401886     8A2     2.401937    30A1     2.401941
      31A1     2.436174    32A1     2.694922    19B1     2.963208
      19B2     2.963208    33A1     3.391296    20B1     4.071661
      20B2     4.071661    34A1     4.467925    35A1     5.620507
      21B1     6.161011    21B2     6.161011     9A2     6.259806
      36A1     6.259816    22B1     6.342871    22B2     6.342871
      37A1     6.355221    10A2     6.678584    38A1     6.678597
      23B1     6.824443    23B2     6.824443    39A1     6.839931
      11A2     6.839946    40A1     6.978281    24B1     7.177215
      24B2     7.177215    41A1     8.293108    42A1    10.935254

    Final Occupation by Irrep:
             A1    A2    B1    B2
    DOCC [     7,    0,    2,    2 ]
    SOCC [     0,    0,    1,    1 ]

  @DF-UKS Final Energy:  -473.37576294424065

   => Energetics <=

    Nuclear Repulsion Energy =             45.8121383638374766
    One-Electron Energy =                -743.6806794369531417
    Two-Electron Energy =                 250.4254393569001707
    DFT Exchange-Correlation Energy =     -26.0334488759437761
    Empirical Dispersion Energy =           0.0000000000000000
    VV10 Nonlocal Energy =                  0.1007876479186305
    Total Energy =                       -473.3757629442407051

  UHF NO Occupations:
  HONO-2 :    2 B2 1.9982399
  HONO-1 :    3 B1 1.0000000
  HONO-0 :    3 B2 1.0000000
  LUNO+0 :    4 B2 0.0017601
  LUNO+1 :    4 B1 0.0017601
  LUNO+2 :    8 A1 0.0003448
  LUNO+3 :    9 A1 0.0002314

Computation Completed

Properties will be evaluated at   0.000000,   0.000000,   0.000000 [a0]

Properties computed using the SCF density matrix

  Nuclear Dipole Moment: [e a0]
     X:     0.0000      Y:     0.0000      Z:    -0.0083

  Electronic Dipole Moment: [e a0]
     X:     0.0000      Y:     0.0000      Z:    -0.6035

  Dipole Moment: [e a0]
     X:     0.0000      Y:     0.0000      Z:    -0.6117     Total:     0.6117

  Dipole Moment: [D]
     X:     0.0000      Y:     0.0000      Z:    -1.5549     Total:     1.5549

*** tstop() called on bp1-compute00092.data.bp.acrc.priv at Tue Apr 27 17:36:55 2021
Module time:
	user time   =     219.19 seconds =       3.65 minutes
	system time =       8.46 seconds =       0.14 minutes
	total time  =          9 seconds =       0.15 minutes
Total time:
	user time   =    2602.93 seconds =      43.38 minutes
	system time =     105.38 seconds =       1.76 minutes
	total time  =        113 seconds =       1.88 minutes

         ----------------------------------------------------------
                                   FINDIF
                     R. A. King and Jonathon Misiewicz
         ---------------------------------------------------------

  Computing second-derivative from energies using projected,
  symmetry-adapted, cartesian coordinates.

  3 energies passed in, including the reference geometry.
    Using 3-point formula.
    Energy without displacement: -473.3757637049
    Check energies below for precision!
    0: -1 :      -473.3757630794
    0: 1  :      -473.3757629442

-------------------------------------------------------------

  ==> Harmonic Vibrational Analysis <==

  non-mass-weighted Hessian:       Symmetric? True   Hermitian? True   Lin Dep Dim?  5 (0)
  projection of translations (True) and rotations (True) removed 5 degrees of freedom (5)
  total projector:                 Symmetric? True   Hermitian? True   Lin Dep Dim?  5 (5)
  mass-weighted Hessian:           Symmetric? True   Hermitian? True   Lin Dep Dim?  5 (0)
  pre-proj  low-frequency mode:    0.0000  [cm^-1]
  pre-proj  low-frequency mode:    0.0000  [cm^-1]
  pre-proj  low-frequency mode:    0.0000  [cm^-1]
  pre-proj  low-frequency mode:    0.0000  [cm^-1]
  pre-proj  low-frequency mode:    0.0000  [cm^-1]
  pre-proj  all modes:['0.0000' '0.0000' '0.0000' '0.0000' '0.0000' '1210.4330']
  projected mass-weighted Hessian: Symmetric? True   Hermitian? True   Lin Dep Dim?  5 (5)
  post-proj low-frequency mode:    0.0000i [cm^-1] (TR)
  post-proj low-frequency mode:    0.0000  [cm^-1] (TR)
  post-proj low-frequency mode:    0.0000  [cm^-1] (TR)
  post-proj low-frequency mode:    0.0000  [cm^-1] (TR)
  post-proj low-frequency mode:    0.0000  [cm^-1] (TR)
  post-proj  all modes:['0.0000i' '0.0000' '0.0000' '0.0000' '0.0000' '1210.4330']

  Vibration                       6
  Freq [cm^-1]                1210.4330
  Irrep                           A1
  Reduced mass [u]             19.1932
  Force const [mDyne/A]        16.5683
  Turning point v=0 [a0]        0.0720
  RMS dev v=0 [a0 u^1/2]        0.2230
  Char temp [K]               1741.5436
  ----------------------------------------------------------------------------------
      1   S                0.00  0.00 -0.45
      2   O                0.00  0.00  0.89

  ==> Thermochemistry Components <==

  Entropy, S
    Electronic S            2.183 [cal/(mol K)]        9.134 [J/(mol K)]       0.00347910 [mEh/K] (multiplicity = 3)
    Translational S        37.528 [cal/(mol K)]      157.018 [J/(mol K)]       0.05980487 [mEh/K] (mol. weight = 47.9670 [u], P = 101325.00 [Pa])
    Rotational S           13.232 [cal/(mol K)]       55.364 [J/(mol K)]       0.02108720 [mEh/K] (symmetry no. = 1)
    Vibrational S           0.040 [cal/(mol K)]        0.166 [J/(mol K)]       0.00006312 [mEh/K]
  Total S                  52.983 [cal/(mol K)]      221.682 [J/(mol K)]       0.08443428 [mEh/K]
  Correction S              0.000 [cal/(mol K)]        0.000 [J/(mol K)]       0.00000000 [mEh/K]

  Constant volume heat capacity, Cv
    Electronic Cv           0.000 [cal/(mol K)]        0.000 [J/(mol K)]       0.00000000 [mEh/K]
    Translational Cv        2.981 [cal/(mol K)]       12.472 [J/(mol K)]       0.00475022 [mEh/K]
    Rotational Cv           1.987 [cal/(mol K)]        8.314 [J/(mol K)]       0.00316681 [mEh/K]
    Vibrational Cv          0.198 [cal/(mol K)]        0.829 [J/(mol K)]       0.00031576 [mEh/K]
  Total Cv                  5.166 [cal/(mol K)]       21.615 [J/(mol K)]       0.00823279 [mEh/K]
  Correction Cv             0.000 [cal/(mol K)]        0.000 [J/(mol K)]       0.00000000 [mEh/K]

  Constant pressure heat capacity, Cp
    Electronic Cp           0.000 [cal/(mol K)]        0.000 [J/(mol K)]       0.00000000 [mEh/K]
    Translational Cp        4.968 [cal/(mol K)]       20.786 [J/(mol K)]       0.00791703 [mEh/K]
    Rotational Cp           1.987 [cal/(mol K)]        8.314 [J/(mol K)]       0.00316681 [mEh/K]
    Vibrational Cp          0.198 [cal/(mol K)]        0.829 [J/(mol K)]       0.00031576 [mEh/K]
  Total Cp                  7.153 [cal/(mol K)]       29.930 [J/(mol K)]       0.01139960 [mEh/K]
  Correction Cp             0.000 [cal/(mol K)]        0.000 [J/(mol K)]       0.00000000 [mEh/K]

  ==> Thermochemistry Energy Analysis <==

  Raw electronic energy, E0
  Total E0, Electronic energy at well bottom at 0 [K]                 -473.37576370 [Eh]

  Zero-point energy, ZPE_vib = Sum_i nu_i / 2
    Electronic ZPE          0.000 [kcal/mol]        0.000 [kJ/mol]       0.00000000 [Eh]
    Translational ZPE       0.000 [kcal/mol]        0.000 [kJ/mol]       0.00000000 [Eh]
    Rotational ZPE          0.000 [kcal/mol]        0.000 [kJ/mol]       0.00000000 [Eh]
    Vibrational ZPE         1.730 [kcal/mol]        7.240 [kJ/mol]       0.00275757 [Eh]         605.216 [cm^-1]
  Correction ZPE            1.730 [kcal/mol]        7.240 [kJ/mol]       0.00275757 [Eh]         605.216 [cm^-1]
  Total ZPE, Electronic energy at 0 [K]                               -473.37300614 [Eh]

  Thermal Energy, E (includes ZPE)
    Electronic E            0.000 [kcal/mol]        0.000 [kJ/mol]       0.00000000 [Eh]
    Translational E         0.889 [kcal/mol]        3.718 [kJ/mol]       0.00141628 [Eh]
    Rotational E            0.592 [kcal/mol]        2.479 [kJ/mol]       0.00094418 [Eh]
    Vibrational E           1.740 [kcal/mol]        7.282 [kJ/mol]       0.00277364 [Eh]
  Correction E              3.222 [kcal/mol]       13.480 [kJ/mol]       0.00513410 [Eh]
  Total E, Electronic energy at  298.15 [K]                           -473.37062960 [Eh]

  Enthalpy, H_trans = E_trans + k_B * T
    Electronic H            0.000 [kcal/mol]        0.000 [kJ/mol]       0.00000000 [Eh]
    Translational H         1.481 [kcal/mol]        6.197 [kJ/mol]       0.00236046 [Eh]
    Rotational H            0.592 [kcal/mol]        2.479 [kJ/mol]       0.00094418 [Eh]
    Vibrational H           1.740 [kcal/mol]        7.282 [kJ/mol]       0.00277364 [Eh]
  Correction H              3.814 [kcal/mol]       15.959 [kJ/mol]       0.00607829 [Eh]
  Total H, Enthalpy at  298.15 [K]                                    -473.36968542 [Eh]

  Gibbs free energy, G = H - T * S
    Electronic G           -0.651 [kcal/mol]       -2.723 [kJ/mol]      -0.00103729 [Eh]
    Translational G        -9.708 [kcal/mol]      -40.617 [kJ/mol]      -0.01547036 [Eh]
    Rotational G           -3.353 [kcal/mol]      -14.028 [kJ/mol]      -0.00534297 [Eh]
    Vibrational G           1.729 [kcal/mol]        7.233 [kJ/mol]       0.00275482 [Eh]
  Correction G            -11.983 [kcal/mol]      -50.136 [kJ/mol]      -0.01909580 [Eh]
  Total G, Free enthalpy at  298.15 [K]                               -473.39485950 [Eh]

    Psi4 stopped on: Tuesday, 27 April 2021 05:36PM
    Psi4 wall time for execution: 0:01:53.96

*** Psi4 exiting successfully. Buy a developer a beer!
