                               Psi4 1.3.2 release

  ==> Input File <==

--------------------------------------------------------------------------
memory 144 GB

molecule {
0 1
B 0.0000000000 0.0000000000 0.0000000000
H 0.0000000000 0.0000000000 1.1899000000
H 1.0304836280 0.0000000000 -0.5949500000
H -1.0304836280 -0.0000000000 -0.5949500000
}

set dynamic_level 1
set basis aug-cc-pV(D+d)Z

optimize("wB97M-V")
frequencies("wB97M-V")
--------------------------------------------------------------------------

    Molecular point group: c2v
  Charge       = 0
  Multiplicity = 1
  Basis Set: AUG-CC-PV(D+D)Z
    Blend: AUG-CC-PV(D+D)Z
  Basis Set: (AUG-CC-PV(D+D)Z AUX)
    Blend: AUG-CC-PVDZ-JKFIT
  @DF-RKS Final Energy:   -26.57080713745961
    Total Energy =                        -26.5708071374596102
    Molecular point group: c2v
  Basis Set: AUG-CC-PV(D+D)Z
    Blend: AUG-CC-PV(D+D)Z
  Basis Set: (AUG-CC-PV(D+D)Z AUX)
    Blend: AUG-CC-PVDZ-JKFIT
  @DF-RKS Final Energy:   -26.57080491563301
    Total Energy =                        -26.5708049156330119
  Basis Set: AUG-CC-PV(D+D)Z
    Blend: AUG-CC-PV(D+D)Z
  Basis Set: (AUG-CC-PV(D+D)Z AUX)
    Blend: AUG-CC-PVDZ-JKFIT
  @DF-RKS Final Energy:   -26.57080490730502
    Total Energy =                        -26.5708049073050283
  Basis Set: AUG-CC-PV(D+D)Z
    Blend: AUG-CC-PV(D+D)Z
  Basis Set: (AUG-CC-PV(D+D)Z AUX)
    Blend: AUG-CC-PVDZ-JKFIT
  @DF-RKS Final Energy:   -26.57078399006146
    Total Energy =                        -26.5707839900614609
  @DF-RKS Final Energy:   -26.57082506878723
    Total Energy =                        -26.5708250687872329
  @DF-RKS Final Energy:   -26.57078400046323
    Total Energy =                        -26.5707840004632310
  @DF-RKS Final Energy:   -26.57082505860108
    Total Energy =                        -26.5708250586010841
  @DF-RKS Final Energy:   -26.57087331797072
    Total Energy =                        -26.5708733179707188
  @DF-RKS Final Energy:   -26.57087115138740
    Total Energy =                        -26.5708711513874007
  @DF-RKS Final Energy:   -26.57087115381003
    Total Energy =                        -26.5708711538100353
  @DF-RKS Final Energy:   -26.57087086254462
    Total Energy =                        -26.5708708625446164
  @DF-RKS Final Energy:   -26.57087071390281
    Total Energy =                        -26.5708707139028135
  @DF-RKS Final Energy:   -26.57087086318937
    Total Energy =                        -26.5708708631893700
  @DF-RKS Final Energy:   -26.57087071339893
    Total Energy =                        -26.5708707133989250
  **** Optimization is complete! (in 2 steps) ****
    Final optimized geometry and variables:
  @DF-RKS Final Energy:   -26.57087331777988
    Total Energy =                        -26.5708733177798742
  @DF-RKS Final Energy:   -26.57087115132346
    Total Energy =                        -26.5708711513234626
  @DF-RKS Final Energy:   -26.57087115364662
    Total Energy =                        -26.5708711536466282
  @DF-RKS Final Energy:   -26.57087086253255
    Total Energy =                        -26.5708708625325478
  @DF-RKS Final Energy:   -26.57087071394626
    Total Energy =                        -26.5708707139462526
  @DF-RKS Final Energy:   -26.57087086301849
    Total Energy =                        -26.5708708630184915
  @DF-RKS Final Energy:   -26.57087071341480
    Total Energy =                        -26.5708707134147950
  @DF-RKS Final Energy:   -26.57087331777987
    Total Energy =                        -26.5708733177798742
  @DF-RKS Final Energy:   -26.57087115132344
    Total Energy =                        -26.5708711513234448
  @DF-RKS Final Energy:   -26.57087115364665
    Total Energy =                        -26.5708711536466531
  @DF-RKS Final Energy:   -26.57087086253251
    Total Energy =                        -26.5708708625325052
  @DF-RKS Final Energy:   -26.57087071394625
    Total Energy =                        -26.5708707139462419
  @DF-RKS Final Energy:   -26.57087086301847
    Total Energy =                        -26.5708708630184702
  @DF-RKS Final Energy:   -26.57087071341481
    Total Energy =                        -26.5708707134148092
  @DF-RKS Final Energy:   -26.57087051261398
    Total Energy =                        -26.5708705126139826
  @DF-RKS Final Energy:   -26.57087066492052
    Total Energy =                        -26.5708706649205197
  @DF-RKS Final Energy:   -26.57086659923426
    Total Energy =                        -26.5708665992342645
  @DF-RKS Final Energy:   -26.57086671528436
    Total Energy =                        -26.5708667152843603
  @DF-RKS Final Energy:   -26.57086695118302
    Total Energy =                        -26.5708669511830244
  @DF-RKS Final Energy:   -26.57086723288857
    Total Energy =                        -26.5708672328885669
  @DF-RKS Final Energy:   -26.57087115246533
    Total Energy =                        -26.5708711524653260
  Basis Set: AUG-CC-PV(D+D)Z
    Blend: AUG-CC-PV(D+D)Z
  Basis Set: (AUG-CC-PV(D+D)Z AUX)
    Blend: AUG-CC-PVDZ-JKFIT
  @DF-RKS Final Energy:   -26.57087072945878
    Total Energy =                        -26.5708707294587754
  Basis Set: AUG-CC-PV(D+D)Z
    Blend: AUG-CC-PV(D+D)Z
  Basis Set: (AUG-CC-PV(D+D)Z AUX)
    Blend: AUG-CC-PVDZ-JKFIT
  @DF-RKS Final Energy:   -26.57086578418341
    Total Energy =                        -26.5708657841834111
  Multiplicity = 1
  Basis Set: AUG-CC-PV(D+D)Z
    Blend: AUG-CC-PV(D+D)Z
  Basis Set: (AUG-CC-PV(D+D)Z AUX)
    Blend: AUG-CC-PVDZ-JKFIT
  @DF-RKS Final Energy:   -26.57086578430771
    Total Energy =                        -26.5708657843077063
    Molecular point group: cs

    Geometry (in Angstrom), charge = 0, multiplicity = 1:

       Center              X                  Y                   Z               Mass
    ------------   -----------------  -----------------  -----------------  -----------------
         B            0.000000000000    -0.000370145531    -0.000000033779    11.009305360000
         H            0.000000000000     0.001347801449     1.196907411987     1.007825032230
         H            1.036547807799     0.001347801979    -0.598453521494     1.007825032230
         H           -1.036547807799     0.001347801979    -0.598453521494     1.007825032230

  Charge       = 0
  Multiplicity = 1
  Basis Set: AUG-CC-PV(D+D)Z
    Blend: AUG-CC-PV(D+D)Z
  Basis Set: (AUG-CC-PV(D+D)Z AUX)
    Blend: AUG-CC-PVDZ-JKFIT

    Orbital Energies [Eh]
    ---------------------

    Doubly Occupied:

       1Ap    -6.935267     2Ap    -0.625551     3Ap    -0.449753
       1App   -0.449752

  @DF-RKS Final Energy:   -26.57087270255872

   => Energetics <=

    Nuclear Repulsion Energy =              7.3975906823389712
    One-Electron Energy =                 -48.9677858963578743
    Two-Electron Energy =                  18.3160738929238676
    DFT Exchange-Correlation Energy =      -3.3506079222722027
    Empirical Dispersion Energy =           0.0000000000000000
    VV10 Nonlocal Energy =                  0.0338565408085178
    Total Energy =                        -26.5708727025587201

  Dipole Moment: [D]
     X:     0.0000      Y:    -0.0037      Z:     0.0000     Total:     0.0037

  Vibration                       7                   8                   9
  Freq [cm^-1]                1140.4202           1182.5038           1432.6151
  Irrep                           B2                  A1                  B1
  Reduced mass [u]              1.2531              1.1077              1.1357
  Force const [mDyne/A]         0.9602              0.9126              1.3733

  Vibration                       10                  11                  12
  Freq [cm^-1]                2565.2512           2700.6153           2827.8350
  Irrep                           A1                  A1                  B1
  Reduced mass [u]              1.0078              1.1268              1.0992
  Force const [mDyne/A]         3.9075              4.8418              5.1790

  ==> Thermochemistry Components <==

  Entropy, S
    Electronic S            0.000 [cal/(mol K)]        0.000 [J/(mol K)]       0.00000000 [mEh/K] (multiplicity = 1)
    Translational S        33.864 [cal/(mol K)]      141.688 [J/(mol K)]       0.05396630 [mEh/K] (mol. weight = 14.0328 [u], P = 101325.00 [Pa])
    Rotational S           13.212 [cal/(mol K)]       55.278 [J/(mol K)]       0.02105421 [mEh/K] (symmetry no. = 2)
    Vibrational S           0.113 [cal/(mol K)]        0.473 [J/(mol K)]       0.00018031 [mEh/K]
  Total S                  47.189 [cal/(mol K)]      197.440 [J/(mol K)]       0.07520082 [mEh/K]
  Correction S              0.000 [cal/(mol K)]        0.000 [J/(mol K)]       0.00000000 [mEh/K]

  Constant volume heat capacity, Cv
    Electronic Cv           0.000 [cal/(mol K)]        0.000 [J/(mol K)]       0.00000000 [mEh/K]
    Translational Cv        2.981 [cal/(mol K)]       12.472 [J/(mol K)]       0.00475022 [mEh/K]
    Rotational Cv           2.981 [cal/(mol K)]       12.472 [J/(mol K)]       0.00475022 [mEh/K]
    Vibrational Cv          0.561 [cal/(mol K)]        2.347 [J/(mol K)]       0.00089374 [mEh/K]
  Total Cv                  6.522 [cal/(mol K)]       27.290 [J/(mol K)]       0.01039417 [mEh/K]
  Correction Cv             0.000 [cal/(mol K)]        0.000 [J/(mol K)]       0.00000000 [mEh/K]

  Constant pressure heat capacity, Cp
    Electronic Cp           0.000 [cal/(mol K)]        0.000 [J/(mol K)]       0.00000000 [mEh/K]
    Translational Cp        4.968 [cal/(mol K)]       20.786 [J/(mol K)]       0.00791703 [mEh/K]
    Rotational Cp           2.981 [cal/(mol K)]       12.472 [J/(mol K)]       0.00475022 [mEh/K]
    Vibrational Cp          0.561 [cal/(mol K)]        2.347 [J/(mol K)]       0.00089374 [mEh/K]
  Total Cp                  8.510 [cal/(mol K)]       35.604 [J/(mol K)]       0.01356098 [mEh/K]
  Correction Cp             0.000 [cal/(mol K)]        0.000 [J/(mol K)]       0.00000000 [mEh/K]

  ==> Thermochemistry Energy Analysis <==

  Raw electronic energy, E0
  Total E0, Electronic energy at well bottom at 0 [K]                  -26.57087332 [Eh]

  Zero-point energy, ZPE_vib = Sum_i nu_i / 2
    Electronic ZPE          0.000 [kcal/mol]        0.000 [kJ/mol]       0.00000000 [Eh]
    Translational ZPE       0.000 [kcal/mol]        0.000 [kJ/mol]       0.00000000 [Eh]
    Rotational ZPE          0.000 [kcal/mol]        0.000 [kJ/mol]       0.00000000 [Eh]
    Vibrational ZPE        16.939 [kcal/mol]       70.874 [kJ/mol]       0.02699456 [Eh]        5924.620 [cm^-1]
  Correction ZPE           16.939 [kcal/mol]       70.874 [kJ/mol]       0.02699456 [Eh]        5924.620 [cm^-1]
  Total ZPE, Electronic energy at 0 [K]                                -26.54387876 [Eh]

  Thermal Energy, E (includes ZPE)
    Electronic E            0.000 [kcal/mol]        0.000 [kJ/mol]       0.00000000 [Eh]
    Translational E         0.889 [kcal/mol]        3.718 [kJ/mol]       0.00141628 [Eh]
    Rotational E            0.889 [kcal/mol]        3.718 [kJ/mol]       0.00141628 [Eh]
    Vibrational E          16.968 [kcal/mol]       70.994 [kJ/mol]       0.02704037 [Eh]
  Correction E             18.746 [kcal/mol]       78.431 [kJ/mol]       0.02987292 [Eh]
  Total E, Electronic energy at  298.15 [K]                            -26.54100039 [Eh]

  Enthalpy, H_trans = E_trans + k_B * T
    Electronic H            0.000 [kcal/mol]        0.000 [kJ/mol]       0.00000000 [Eh]
    Translational H         1.481 [kcal/mol]        6.197 [kJ/mol]       0.00236046 [Eh]
    Rotational H            0.889 [kcal/mol]        3.718 [kJ/mol]       0.00141628 [Eh]
    Vibrational H          16.968 [kcal/mol]       70.994 [kJ/mol]       0.02704037 [Eh]
  Correction H             19.338 [kcal/mol]       80.910 [kJ/mol]       0.03081711 [Eh]
  Total H, Enthalpy at  298.15 [K]                                     -26.54005621 [Eh]

  Gibbs free energy, G = H - T * S
    Electronic G            0.000 [kcal/mol]        0.000 [kJ/mol]       0.00000000 [Eh]
    Translational G        -8.615 [kcal/mol]      -36.047 [kJ/mol]      -0.01372959 [Eh]
    Rotational G           -3.050 [kcal/mol]      -12.763 [kJ/mol]      -0.00486104 [Eh]
    Vibrational G          16.934 [kcal/mol]       70.853 [kJ/mol]       0.02698661 [Eh]
  Correction G              5.269 [kcal/mol]       22.044 [kJ/mol]       0.00839598 [Eh]
  Total G, Free enthalpy at  298.15 [K]                                -26.56247733 [Eh]

*** Psi4 exiting successfully. Buy a developer a beer!
