                               Psi4 1.3.2 release

  ==> Input File <==

--------------------------------------------------------------------------
memory 144 GB

molecule {
0 1
C 0.0000000000 0.0000000000 0.0000000000
C 0.0000000000 0.0000000000 1.2065000000
H 0.0000000000 -0.0000000000 2.2699000000
H -0.0000000000 -0.0000000000 -1.0634000000
}

set dynamic_level 1
set basis aug-cc-pV(D+d)Z

optimize("wB97M-V")
frequencies("wB97M-V")
--------------------------------------------------------------------------

    Molecular point group: d2h
  Charge       = 0
  Multiplicity = 1
  Basis Set: AUG-CC-PV(D+D)Z
    Blend: AUG-CC-PV(D+D)Z
  Basis Set: (AUG-CC-PV(D+D)Z AUX)
    Blend: AUG-CC-PVDZ-JKFIT
  @DF-RKS Final Energy:   -77.29846377442496
    Total Energy =                        -77.2984637744249596
    Molecular point group: d2h
  Basis Set: AUG-CC-PV(D+D)Z
    Blend: AUG-CC-PV(D+D)Z
  Basis Set: (AUG-CC-PV(D+D)Z AUX)
    Blend: AUG-CC-PVDZ-JKFIT
  @DF-RKS Final Energy:   -77.29845418383289
    Total Energy =                        -77.2984541838328880
  Basis Set: AUG-CC-PV(D+D)Z
    Blend: AUG-CC-PV(D+D)Z
  Basis Set: (AUG-CC-PV(D+D)Z AUX)
    Blend: AUG-CC-PVDZ-JKFIT
  @DF-RKS Final Energy:   -77.29846758592900
    Total Energy =                        -77.2984675859290036
  Basis Set: AUG-CC-PV(D+D)Z
    Blend: AUG-CC-PV(D+D)Z
  Basis Set: (AUG-CC-PV(D+D)Z AUX)
    Blend: AUG-CC-PVDZ-JKFIT
  @DF-RKS Final Energy:   -77.29841659837460
    Total Energy =                        -77.2984165983746010
  @DF-RKS Final Energy:   -77.29850033519553
    Total Energy =                        -77.2985003351955413
  @DF-RKS Final Energy:   -77.29855012469183
    Total Energy =                        -77.2985501246918290
  @DF-RKS Final Energy:   -77.29854836392786
    Total Energy =                        -77.2985483639278641
  @DF-RKS Final Energy:   -77.29854617631544
    Total Energy =                        -77.2985461763154404
  @DF-RKS Final Energy:   -77.29854906348841
    Total Energy =                        -77.2985490634883803
  @DF-RKS Final Energy:   -77.29854101610690
    Total Energy =                        -77.2985410161068955
  @DF-RKS Final Energy:   -77.29855093238471
    Total Energy =                        -77.2985509323847140
  @DF-RKS Final Energy:   -77.29854805347559
    Total Energy =                        -77.2985480534755993
  @DF-RKS Final Energy:   -77.29854811531321
    Total Energy =                        -77.2985481153132099
  @DF-RKS Final Energy:   -77.29854589674210
    Total Energy =                        -77.2985458967421124
  @DF-RKS Final Energy:   -77.29854572141318
    Total Energy =                        -77.2985457214131628
  **** Optimization is complete! (in 3 steps) ****
    Final optimized geometry and variables:
  @DF-RKS Final Energy:   -77.29855093238480
    Total Energy =                        -77.2985509323847850
  @DF-RKS Final Energy:   -77.29854805347553
    Total Energy =                        -77.2985480534755283
  @DF-RKS Final Energy:   -77.29854811531308
    Total Energy =                        -77.2985481153130820
  @DF-RKS Final Energy:   -77.29854589674208
    Total Energy =                        -77.2985458967420840
  @DF-RKS Final Energy:   -77.29854571916896
    Total Energy =                        -77.2985457191689562
  @DF-RKS Final Energy:   -77.29855093238479
    Total Energy =                        -77.2985509323847850
  @DF-RKS Final Energy:   -77.29854805347553
    Total Energy =                        -77.2985480534755141
  @DF-RKS Final Energy:   -77.29854811531314
    Total Energy =                        -77.2985481153131389
  @DF-RKS Final Energy:   -77.29854589674220
    Total Energy =                        -77.2985458967421977
  @DF-RKS Final Energy:   -77.29854571916903
    Total Energy =                        -77.2985457191690131
  @DF-RKS Final Energy:   -77.29853986200517
    Total Energy =                        -77.2985398620051711
  @DF-RKS Final Energy:   -77.29853995368194
    Total Energy =                        -77.2985399536819386
  @DF-RKS Final Energy:   -77.29855077287445
    Total Energy =                        -77.2985507728744494
  Basis Set: AUG-CC-PV(D+D)Z
    Blend: AUG-CC-PV(D+D)Z
  Basis Set: (AUG-CC-PV(D+D)Z AUX)
    Blend: AUG-CC-PVDZ-JKFIT
  @DF-RKS Final Energy:   -77.29855077459564
    Total Energy =                        -77.2985507745956397
  Basis Set: AUG-CC-PV(D+D)Z
    Blend: AUG-CC-PV(D+D)Z
  Basis Set: (AUG-CC-PV(D+D)Z AUX)
    Blend: AUG-CC-PVDZ-JKFIT
  @DF-RKS Final Energy:   -77.29854539789760
    Total Energy =                        -77.2985453978975841
  Multiplicity = 1
  Basis Set: AUG-CC-PV(D+D)Z
    Blend: AUG-CC-PV(D+D)Z
  Basis Set: (AUG-CC-PV(D+D)Z AUX)
    Blend: AUG-CC-PVDZ-JKFIT
  @DF-RKS Final Energy:   -77.29855068746714
    Total Energy =                        -77.2985506874671415
    Molecular point group: c2v

    Geometry (in Angstrom), charge = 0, multiplicity = 1:

       Center              X                  Y                   Z               Mass
    ------------   -----------------  -----------------  -----------------  -----------------
         C           -0.000150333491     0.000000000000    -0.603934506245    12.000000000000
         C           -0.000150333491     0.000000000000     0.603934506245    12.000000000000
         H            0.001789995126    -0.000000000000     1.674867087751     1.007825032230
         H            0.001789995126     0.000000000000    -1.674867087751     1.007825032230

  Charge       = 0
  Multiplicity = 1
  Basis Set: AUG-CC-PV(D+D)Z
    Blend: AUG-CC-PV(D+D)Z
  Basis Set: (AUG-CC-PV(D+D)Z AUX)
    Blend: AUG-CC-PVDZ-JKFIT

    Orbital Energies [Eh]
    ---------------------

    Doubly Occupied:

       1A1   -10.374200     1B2   -10.371927     2A1    -0.879424
       2B2    -0.678011     3A1    -0.601227     1B1    -0.394300
       4A1    -0.394300

  @DF-RKS Final Energy:   -77.29855067344356

   => Energetics <=

    Nuclear Repulsion Energy =             24.6459946961150393
    One-Electron Energy =                -151.5126211015916056
    Two-Electron Energy =                  57.5179589558986493
    DFT Exchange-Correlation Energy =      -8.0076033556458963
    Empirical Dispersion Energy =           0.0000000000000000
    VV10 Nonlocal Energy =                  0.0577201317802555
    Total Energy =                        -77.2985506734435575

  Dipole Moment: [D]
     X:     0.0041      Y:    -0.0000      Z:     0.0000     Total:     0.0041

  Vibration                       6                   7                   8
  Freq [cm^-1]                 577.5477            580.6891            719.5472
  Irrep                          B3g                 B2g                 B2u
  Reduced mass [u]              1.5735              1.5735              1.0848
  Force const [mDyne/A]         0.3092              0.3126              0.3309

  Vibration                       9                   10                  11
  Freq [cm^-1]                 739.8606           2098.1365           3420.4872
  Irrep                          B3u                  Ag                 B1u
  Reduced mass [u]              1.0848              3.7583              1.0848
  Force const [mDyne/A]         0.3499              9.7477              7.4779

  Vibration                       12
  Freq [cm^-1]                3528.6355
  Irrep                           Ag
  Reduced mass [u]              1.2353
  Force const [mDyne/A]         9.0626

  ==> Thermochemistry Components <==

  Entropy, S
    Electronic S            0.000 [cal/(mol K)]        0.000 [J/(mol K)]       0.00000000 [mEh/K] (multiplicity = 1)
    Translational S        35.704 [cal/(mol K)]      149.387 [J/(mol K)]       0.05689862 [mEh/K] (mol. weight = 26.0157 [u], P = 101325.00 [Pa])
    Rotational S           10.897 [cal/(mol K)]       45.593 [J/(mol K)]       0.01736562 [mEh/K] (symmetry no. = 2)
    Vibrational S           1.521 [cal/(mol K)]        6.363 [J/(mol K)]       0.00242366 [mEh/K]
  Total S                  48.122 [cal/(mol K)]      201.344 [J/(mol K)]       0.07668790 [mEh/K]
  Correction S              0.000 [cal/(mol K)]        0.000 [J/(mol K)]       0.00000000 [mEh/K]

  Constant volume heat capacity, Cv
    Electronic Cv           0.000 [cal/(mol K)]        0.000 [J/(mol K)]       0.00000000 [mEh/K]
    Translational Cv        2.981 [cal/(mol K)]       12.472 [J/(mol K)]       0.00475022 [mEh/K]
    Rotational Cv           1.987 [cal/(mol K)]        8.314 [J/(mol K)]       0.00316681 [mEh/K]
    Vibrational Cv          3.708 [cal/(mol K)]       15.515 [J/(mol K)]       0.00590950 [mEh/K]
  Total Cv                  8.676 [cal/(mol K)]       36.302 [J/(mol K)]       0.01382653 [mEh/K]
  Correction Cv             0.000 [cal/(mol K)]        0.000 [J/(mol K)]       0.00000000 [mEh/K]

  Constant pressure heat capacity, Cp
    Electronic Cp           0.000 [cal/(mol K)]        0.000 [J/(mol K)]       0.00000000 [mEh/K]
    Translational Cp        4.968 [cal/(mol K)]       20.786 [J/(mol K)]       0.00791703 [mEh/K]
    Rotational Cp           1.987 [cal/(mol K)]        8.314 [J/(mol K)]       0.00316681 [mEh/K]
    Vibrational Cp          3.708 [cal/(mol K)]       15.515 [J/(mol K)]       0.00590950 [mEh/K]
  Total Cp                 10.663 [cal/(mol K)]       44.616 [J/(mol K)]       0.01699334 [mEh/K]
  Correction Cp             0.000 [cal/(mol K)]        0.000 [J/(mol K)]       0.00000000 [mEh/K]

  ==> Thermochemistry Energy Analysis <==

  Raw electronic energy, E0
  Total E0, Electronic energy at well bottom at 0 [K]                  -77.29855093 [Eh]

  Zero-point energy, ZPE_vib = Sum_i nu_i / 2
    Electronic ZPE          0.000 [kcal/mol]        0.000 [kJ/mol]       0.00000000 [Eh]
    Translational ZPE       0.000 [kcal/mol]        0.000 [kJ/mol]       0.00000000 [Eh]
    Rotational ZPE          0.000 [kcal/mol]        0.000 [kJ/mol]       0.00000000 [Eh]
    Vibrational ZPE        16.676 [kcal/mol]       69.772 [kJ/mol]       0.02657461 [Eh]        5832.452 [cm^-1]
  Correction ZPE           16.676 [kcal/mol]       69.772 [kJ/mol]       0.02657461 [Eh]        5832.452 [cm^-1]
  Total ZPE, Electronic energy at 0 [K]                                -77.27197633 [Eh]

  Thermal Energy, E (includes ZPE)
    Electronic E            0.000 [kcal/mol]        0.000 [kJ/mol]       0.00000000 [Eh]
    Translational E         0.889 [kcal/mol]        3.718 [kJ/mol]       0.00141628 [Eh]
    Rotational E            0.592 [kcal/mol]        2.479 [kJ/mol]       0.00094418 [Eh]
    Vibrational E          17.019 [kcal/mol]       71.207 [kJ/mol]       0.02712132 [Eh]
  Correction E             18.500 [kcal/mol]       77.404 [kJ/mol]       0.02948178 [Eh]
  Total E, Electronic energy at  298.15 [K]                            -77.26906915 [Eh]

  Enthalpy, H_trans = E_trans + k_B * T
    Electronic H            0.000 [kcal/mol]        0.000 [kJ/mol]       0.00000000 [Eh]
    Translational H         1.481 [kcal/mol]        6.197 [kJ/mol]       0.00236046 [Eh]
    Rotational H            0.592 [kcal/mol]        2.479 [kJ/mol]       0.00094418 [Eh]
    Vibrational H          17.019 [kcal/mol]       71.207 [kJ/mol]       0.02712132 [Eh]
  Correction H             19.093 [kcal/mol]       79.883 [kJ/mol]       0.03042596 [Eh]
  Total H, Enthalpy at  298.15 [K]                                     -77.26812497 [Eh]

  Gibbs free energy, G = H - T * S
    Electronic G            0.000 [kcal/mol]        0.000 [kJ/mol]       0.00000000 [Eh]
    Translational G        -9.164 [kcal/mol]      -38.342 [kJ/mol]      -0.01460386 [Eh]
    Rotational G           -2.656 [kcal/mol]      -11.115 [kJ/mol]      -0.00423338 [Eh]
    Vibrational G          16.565 [kcal/mol]       69.310 [kJ/mol]       0.02639870 [Eh]
  Correction G              4.745 [kcal/mol]       19.853 [kJ/mol]       0.00756146 [Eh]
  Total G, Free enthalpy at  298.15 [K]                                -77.29098947 [Eh]

*** Psi4 exiting successfully. Buy a developer a beer!
