                               Psi4 1.3.2 release

  ==> Input File <==

--------------------------------------------------------------------------
memory 144 GB

molecule {
0 1
C 0.0000000000 0.0000000000 0.0000000000
C 0.0000000000 0.0000000000 1.3342000000
H 0.9234041342 0.0000000000 1.8987335198
H -0.9234041342 0.0000000000 1.8987335198
H 0.9234041342 0.0000000000 -0.5645335198
H -0.9234041342 -0.0000000000 -0.5645335198
}

set dynamic_level 1
set basis aug-cc-pV(D+d)Z

optimize("wB97M-V")
frequencies("wB97M-V")
--------------------------------------------------------------------------

    Molecular point group: d2h
  Charge       = 0
  Multiplicity = 1
  Basis Set: AUG-CC-PV(D+D)Z
    Blend: AUG-CC-PV(D+D)Z
  Basis Set: (AUG-CC-PV(D+D)Z AUX)
    Blend: AUG-CC-PVDZ-JKFIT
  @DF-RKS Final Energy:   -78.54118575039641
    Total Energy =                        -78.5411857503964228
    Molecular point group: d2h
  Basis Set: AUG-CC-PV(D+D)Z
    Blend: AUG-CC-PV(D+D)Z
  Basis Set: (AUG-CC-PV(D+D)Z AUX)
    Blend: AUG-CC-PVDZ-JKFIT
  @DF-RKS Final Energy:   -78.54116773606297
    Total Energy =                        -78.5411677360629739
  Basis Set: AUG-CC-PV(D+D)Z
    Blend: AUG-CC-PV(D+D)Z
  Basis Set: (AUG-CC-PV(D+D)Z AUX)
    Blend: AUG-CC-PVDZ-JKFIT
  @DF-RKS Final Energy:   -78.54120067596678
    Total Energy =                        -78.5412006759667776
  Basis Set: AUG-CC-PV(D+D)Z
    Blend: AUG-CC-PV(D+D)Z
  Basis Set: (AUG-CC-PV(D+D)Z AUX)
    Blend: AUG-CC-PVDZ-JKFIT
  @DF-RKS Final Energy:   -78.54113425632789
    Total Energy =                        -78.5411342563279078
  @DF-RKS Final Energy:   -78.54122966097870
    Total Energy =                        -78.5412296609787006
  @DF-RKS Final Energy:   -78.54115382794802
    Total Energy =                        -78.5411538279480226
  @DF-RKS Final Energy:   -78.54121388399656
    Total Energy =                        -78.5412138839965621
  @DF-RKS Final Energy:   -78.54136108781078
    Total Energy =                        -78.5413610878107846
  @DF-RKS Final Energy:   -78.54135898270401
    Total Energy =                        -78.5413589827040113
  @DF-RKS Final Energy:   -78.54136008678212
    Total Energy =                        -78.5413600867821202
  @DF-RKS Final Energy:   -78.54136022100896
    Total Energy =                        -78.5413602210089579
  @DF-RKS Final Energy:   -78.54135469579681
    Total Energy =                        -78.5413546957968123
  @DF-RKS Final Energy:   -78.54135857454619
    Total Energy =                        -78.5413585745461944
  @DF-RKS Final Energy:   -78.54135991237227
    Total Energy =                        -78.5413599123722577
  @DF-RKS Final Energy:   -78.54136223807122
    Total Energy =                        -78.5413622380712155
  @DF-RKS Final Energy:   -78.54136032287629
    Total Energy =                        -78.5413603228762867
  @DF-RKS Final Energy:   -78.54136107045561
    Total Energy =                        -78.5413610704556220
  @DF-RKS Final Energy:   -78.54135905614044
    Total Energy =                        -78.5413590561404362
  @DF-RKS Final Energy:   -78.54135817899815
    Total Energy =                        -78.5413581789981521
  @DF-RKS Final Energy:   -78.54135988527426
    Total Energy =                        -78.5413598852742609
  **** Optimization is complete! (in 3 steps) ****
    Final optimized geometry and variables:
  @DF-RKS Final Energy:   -78.54135581567995
    Total Energy =                        -78.5413558156799496
  @DF-RKS Final Energy:   -78.54135854176972
    Total Energy =                        -78.5413585417697391
  @DF-RKS Final Energy:   -78.54135679982714
    Total Energy =                        -78.5413567998271276
  @DF-RKS Final Energy:   -78.54135380365325
    Total Energy =                        -78.5413538036532515
  @DF-RKS Final Energy:   -78.54135360954588
    Total Energy =                        -78.5413536095458795
  @DF-RKS Final Energy:   -78.54136059543993
    Total Energy =                        -78.5413605954399117
  @DF-RKS Final Energy:   -78.54135822810963
    Total Energy =                        -78.5413582281096438
  @DF-RKS Final Energy:   -78.54135305321265
    Total Energy =                        -78.5413530532126458
  @DF-RKS Final Energy:   -78.54135304432461
    Total Energy =                        -78.5413530443246088
  @DF-RKS Final Energy:   -78.54136179035351
    Total Energy =                        -78.5413617903535055
  @DF-RKS Final Energy:   -78.54136172242985
    Total Energy =                        -78.5413617224298548
  @DF-RKS Final Energy:   -78.54136019664077
    Total Energy =                        -78.5413601966407668
  @DF-RKS Final Energy:   -78.54135860791840
    Total Energy =                        -78.5413586079184114
  @DF-RKS Final Energy:   -78.54135991589571
    Total Energy =                        -78.5413599158957112
  @DF-RKS Final Energy:   -78.54135991384248
    Total Energy =                        -78.5413599138424985
  @DF-RKS Final Energy:   -78.54136178418665
    Total Energy =                        -78.5413617841866483
  Basis Set: AUG-CC-PV(D+D)Z
    Blend: AUG-CC-PV(D+D)Z
  Basis Set: (AUG-CC-PV(D+D)Z AUX)
    Blend: AUG-CC-PVDZ-JKFIT
  @DF-RKS Final Energy:   -78.54135840448438
    Total Energy =                        -78.5413584044843844
  Basis Set: AUG-CC-PV(D+D)Z
    Blend: AUG-CC-PV(D+D)Z
  Basis Set: (AUG-CC-PV(D+D)Z AUX)
    Blend: AUG-CC-PVDZ-JKFIT
  @DF-RKS Final Energy:   -78.54136074329688
    Total Energy =                        -78.5413607432968774
  Multiplicity = 1
  Basis Set: AUG-CC-PV(D+D)Z
    Blend: AUG-CC-PV(D+D)Z
  Basis Set: (AUG-CC-PV(D+D)Z AUX)
    Blend: AUG-CC-PVDZ-JKFIT
  @DF-RKS Final Energy:   -78.54136097511496
    Total Energy =                        -78.5413609751149551
    Molecular point group: c2v

    Geometry (in Angstrom), charge = 0, multiplicity = 1:

       Center              X                  Y                   Z               Mass
    ------------   -----------------  -----------------  -----------------  -----------------
         C           -0.000204817217     0.000000000000    -0.666115183170    12.000000000000
         C           -0.000204817217     0.000000000000     0.666115183170    12.000000000000
         H            0.930891835185     0.000000000000     1.234641228808     1.007825032230
         H           -0.928453111665     0.000000000000     1.237276823150     1.007825032230
         H            0.930891835185     0.000000000000    -1.234641228808     1.007825032230
         H           -0.928453111665     0.000000000000    -1.237276823150     1.007825032230

  Charge       = 0
  Multiplicity = 1
  Basis Set: AUG-CC-PV(D+D)Z
    Blend: AUG-CC-PV(D+D)Z
  Basis Set: (AUG-CC-PV(D+D)Z AUX)
    Blend: AUG-CC-PVDZ-JKFIT

    Orbital Energies [Eh]
    ---------------------

    Doubly Occupied:

       1A1   -10.361699     1B2   -10.360892     2A1    -0.885486
       2B2    -0.692248     3A1    -0.575583     4A1    -0.522843
       3B2    -0.452108     1B1    -0.374049

  @DF-RKS Final Energy:   -78.54136098336384

   => Energetics <=

    Nuclear Repulsion Energy =             33.2851005000256635
    One-Electron Energy =                -169.9849401858674298
    Two-Electron Energy =                  66.5190649719385334
    DFT Exchange-Correlation Energy =      -8.4254865870212363
    Empirical Dispersion Energy =           0.0000000000000000
    VV10 Nonlocal Energy =                  0.0649003175606273
    Total Energy =                        -78.5413609833638446

  Dipole Moment: [D]
     X:    -0.0007      Y:     0.0000      Z:    -0.0000     Total:     0.0007

  Vibration                       7                   8                   9
  Freq [cm^-1]                 819.0200            972.8623            979.5395
  Irrep                          B3u                 B3g                 B2u
  Reduced mass [u]              1.0423              1.5170              1.1607
  Force const [mDyne/A]         0.4119              0.8459              0.6562

  Vibration                       10                  11                  12
  Freq [cm^-1]                1044.0544           1215.0295           1365.2292
  Irrep                           Au                 B2g                  Ag
  Reduced mass [u]              1.0078              1.5240              1.1560
  Force const [mDyne/A]         0.6473              1.3256              1.2695

  Vibration                       13                  14                  15
  Freq [cm^-1]                1441.3227           1706.8033           3148.3548
  Irrep                          B1u                  Ag                 B1u
  Reduced mass [u]              1.1125              3.6574              1.0472
  Force const [mDyne/A]         1.3617              6.2776              6.1159

  Vibration                       16                  17                  18
  Freq [cm^-1]                3166.2903           3236.2180           3254.7188
  Irrep                           Ag                 B2g                 B3u
  Reduced mass [u]              1.0760              1.1156              1.1182
  Force const [mDyne/A]         6.3559              6.8837              6.9789

  ==> Thermochemistry Components <==

  Entropy, S
    Electronic S            0.000 [cal/(mol K)]        0.000 [J/(mol K)]       0.00000000 [mEh/K] (multiplicity = 1)
    Translational S        35.927 [cal/(mol K)]      150.318 [J/(mol K)]       0.05725309 [mEh/K] (mol. weight = 28.0313 [u], P = 101325.00 [Pa])
    Rotational S           15.877 [cal/(mol K)]       66.430 [J/(mol K)]       0.02530185 [mEh/K] (symmetry no. = 4)
    Vibrational S           0.556 [cal/(mol K)]        2.327 [J/(mol K)]       0.00088636 [mEh/K]
  Total S                  52.360 [cal/(mol K)]      219.075 [J/(mol K)]       0.08344130 [mEh/K]
  Correction S              0.000 [cal/(mol K)]        0.000 [J/(mol K)]       0.00000000 [mEh/K]

  Constant volume heat capacity, Cv
    Electronic Cv           0.000 [cal/(mol K)]        0.000 [J/(mol K)]       0.00000000 [mEh/K]
    Translational Cv        2.981 [cal/(mol K)]       12.472 [J/(mol K)]       0.00475022 [mEh/K]
    Rotational Cv           2.981 [cal/(mol K)]       12.472 [J/(mol K)]       0.00475022 [mEh/K]
    Vibrational Cv          2.202 [cal/(mol K)]        9.212 [J/(mol K)]       0.00350849 [mEh/K]
  Total Cv                  8.163 [cal/(mol K)]       34.155 [J/(mol K)]       0.01300892 [mEh/K]
  Correction Cv             0.000 [cal/(mol K)]        0.000 [J/(mol K)]       0.00000000 [mEh/K]

  Constant pressure heat capacity, Cp
    Electronic Cp           0.000 [cal/(mol K)]        0.000 [J/(mol K)]       0.00000000 [mEh/K]
    Translational Cp        4.968 [cal/(mol K)]       20.786 [J/(mol K)]       0.00791703 [mEh/K]
    Rotational Cp           2.981 [cal/(mol K)]       12.472 [J/(mol K)]       0.00475022 [mEh/K]
    Vibrational Cp          2.202 [cal/(mol K)]        9.212 [J/(mol K)]       0.00350849 [mEh/K]
  Total Cp                 10.150 [cal/(mol K)]       42.469 [J/(mol K)]       0.01617573 [mEh/K]
  Correction Cp             0.000 [cal/(mol K)]        0.000 [J/(mol K)]       0.00000000 [mEh/K]

  ==> Thermochemistry Energy Analysis <==

  Raw electronic energy, E0
  Total E0, Electronic energy at well bottom at 0 [K]                  -78.54136224 [Eh]

  Zero-point energy, ZPE_vib = Sum_i nu_i / 2
    Electronic ZPE          0.000 [kcal/mol]        0.000 [kJ/mol]       0.00000000 [Eh]
    Translational ZPE       0.000 [kcal/mol]        0.000 [kJ/mol]       0.00000000 [Eh]
    Rotational ZPE          0.000 [kcal/mol]        0.000 [kJ/mol]       0.00000000 [Eh]
    Vibrational ZPE        31.950 [kcal/mol]      133.679 [kJ/mol]       0.05091578 [Eh]       11174.721 [cm^-1]
  Correction ZPE           31.950 [kcal/mol]      133.679 [kJ/mol]       0.05091578 [Eh]       11174.721 [cm^-1]
  Total ZPE, Electronic energy at 0 [K]                                -78.49044646 [Eh]

  Thermal Energy, E (includes ZPE)
    Electronic E            0.000 [kcal/mol]        0.000 [kJ/mol]       0.00000000 [Eh]
    Translational E         0.889 [kcal/mol]        3.718 [kJ/mol]       0.00141628 [Eh]
    Rotational E            0.889 [kcal/mol]        3.718 [kJ/mol]       0.00141628 [Eh]
    Vibrational E          32.087 [kcal/mol]      134.251 [kJ/mol]       0.05113338 [Eh]
  Correction E             33.864 [kcal/mol]      141.688 [kJ/mol]       0.05396593 [Eh]
  Total E, Electronic energy at  298.15 [K]                            -78.48739631 [Eh]

  Enthalpy, H_trans = E_trans + k_B * T
    Electronic H            0.000 [kcal/mol]        0.000 [kJ/mol]       0.00000000 [Eh]
    Translational H         1.481 [kcal/mol]        6.197 [kJ/mol]       0.00236046 [Eh]
    Rotational H            0.889 [kcal/mol]        3.718 [kJ/mol]       0.00141628 [Eh]
    Vibrational H          32.087 [kcal/mol]      134.251 [kJ/mol]       0.05113338 [Eh]
  Correction H             34.457 [kcal/mol]      144.166 [kJ/mol]       0.05491012 [Eh]
  Total H, Enthalpy at  298.15 [K]                                     -78.48645212 [Eh]

  Gibbs free energy, G = H - T * S
    Electronic G            0.000 [kcal/mol]        0.000 [kJ/mol]       0.00000000 [Eh]
    Translational G        -9.230 [kcal/mol]      -38.620 [kJ/mol]      -0.01470955 [Eh]
    Rotational G           -3.845 [kcal/mol]      -16.088 [kJ/mol]      -0.00612747 [Eh]
    Vibrational G          31.921 [kcal/mol]      133.557 [kJ/mol]       0.05086911 [Eh]
  Correction G             18.845 [kcal/mol]       78.849 [kJ/mol]       0.03003209 [Eh]
  Total G, Free enthalpy at  298.15 [K]                                -78.51133015 [Eh]

*** Psi4 exiting successfully. Buy a developer a beer!
