                               Psi4 1.3.2 release

  ==> Input File <==

--------------------------------------------------------------------------
memory 144 GB

molecule {
0 1
C 0.0000000000 0.0000000000 0.0000000000
Cl 0.0000000000 0.0000000000 1.7182578700
Cl 1.6229007750 0.0000000000 -0.5644494507
}

set dynamic_level 1
set basis aug-cc-pV(D+d)Z

optimize("wB97M-V")
frequencies("wB97M-V")
--------------------------------------------------------------------------

    Molecular point group: c2v
  Charge       = 0
  Multiplicity = 1
  Basis Set: AUG-CC-PV(D+D)Z
    Blend: AUG-CC-PV(D+D)Z
  Basis Set: (AUG-CC-PV(D+D)Z AUX)
    Blend: AUG-CC-PVDZ-JKFIT
  @DF-RKS Final Energy:  -958.36527772044019
    Total Energy =                       -958.3652777204401900
    Molecular point group: c2v
  Basis Set: AUG-CC-PV(D+D)Z
    Blend: AUG-CC-PV(D+D)Z
  Basis Set: (AUG-CC-PV(D+D)Z AUX)
    Blend: AUG-CC-PVDZ-JKFIT
  @DF-RKS Final Energy:  -958.36527876315631
    Total Energy =                       -958.3652787631561978
  Basis Set: AUG-CC-PV(D+D)Z
    Blend: AUG-CC-PV(D+D)Z
  Basis Set: (AUG-CC-PV(D+D)Z AUX)
    Blend: AUG-CC-PVDZ-JKFIT
  @DF-RKS Final Energy:  -958.36527619781020
    Total Energy =                       -958.3652761978102035
  Basis Set: AUG-CC-PV(D+D)Z
    Blend: AUG-CC-PV(D+D)Z
  Basis Set: (AUG-CC-PV(D+D)Z AUX)
    Blend: AUG-CC-PVDZ-JKFIT
  @DF-RKS Final Energy:  -958.36527791414119
    Total Energy =                       -958.3652779141410747
  @DF-RKS Final Energy:  -958.36527736796438
    Total Energy =                       -958.3652773679643815
  @DF-RKS Final Energy:  -958.36527983392455
    Total Energy =                       -958.3652798339245464
  @DF-RKS Final Energy:  -958.36527960761418
    Total Energy =                       -958.3652796076141840
  @DF-RKS Final Energy:  -958.36527957725662
    Total Energy =                       -958.3652795772566151
  @DF-RKS Final Energy:  -958.36527921021400
    Total Energy =                       -958.3652792102141120
  @DF-RKS Final Energy:  -958.36528029802685
    Total Energy =                       -958.3652802980267325
  @DF-RKS Final Energy:  -958.36528097351732
    Total Energy =                       -958.3652809735174287
  @DF-RKS Final Energy:  -958.36528087328645
    Total Energy =                       -958.3652808732864514
  @DF-RKS Final Energy:  -958.36528058921920
    Total Energy =                       -958.3652805892191964
  @DF-RKS Final Energy:  -958.36528081707445
    Total Energy =                       -958.3652808170744493
  @DF-RKS Final Energy:  -958.36528096602626
    Total Energy =                       -958.3652809660262619
  **** Optimization is complete! (in 3 steps) ****
    Final optimized geometry and variables:
  @DF-RKS Final Energy:  -958.36528097351732
    Total Energy =                       -958.3652809735173150
  @DF-RKS Final Energy:  -958.36528087328657
    Total Energy =                       -958.3652808732865651
  @DF-RKS Final Energy:  -958.36528058921886
    Total Energy =                       -958.3652805892188553
  @DF-RKS Final Energy:  -958.36528081707513
    Total Energy =                       -958.3652808170751314
  @DF-RKS Final Energy:  -958.36528096602683
    Total Energy =                       -958.3652809660268304
  @DF-RKS Final Energy:  -958.36528097351800
    Total Energy =                       -958.3652809735177698
  @DF-RKS Final Energy:  -958.36528087328634
    Total Energy =                       -958.3652808732863377
  @DF-RKS Final Energy:  -958.36528058921886
    Total Energy =                       -958.3652805892189690
  @DF-RKS Final Energy:  -958.36528081707513
    Total Energy =                       -958.3652808170751314
  Basis Set: AUG-CC-PV(D+D)Z
    Blend: AUG-CC-PV(D+D)Z
  Basis Set: (AUG-CC-PV(D+D)Z AUX)
    Blend: AUG-CC-PVDZ-JKFIT
  @DF-RKS Final Energy:  -958.36528096602717
    Total Energy =                       -958.3652809660272851
  Basis Set: AUG-CC-PV(D+D)Z
    Blend: AUG-CC-PV(D+D)Z
  Basis Set: (AUG-CC-PV(D+D)Z AUX)
    Blend: AUG-CC-PVDZ-JKFIT
  @DF-RKS Final Energy:  -958.36528071656767
    Total Energy =                       -958.3652807165676677
  Multiplicity = 1
  Basis Set: AUG-CC-PV(D+D)Z
    Blend: AUG-CC-PV(D+D)Z
  Basis Set: (AUG-CC-PV(D+D)Z AUX)
    Blend: AUG-CC-PVDZ-JKFIT
  @DF-RKS Final Energy:  -958.36528084866825
    Total Energy =                       -958.3652808486682488
    Molecular point group: cs

    Geometry (in Angstrom), charge = 0, multiplicity = 1:

       Center              X                  Y                   Z               Mass
    ------------   -----------------  -----------------  -----------------  -----------------
         C            0.000000000000    -0.000680699656    -0.852512454863    12.000000000000
         CL           0.000000000000     1.398838674848     0.146358566168    34.968852682000
         CL           0.000000000000    -1.398605084231     0.146191765734    34.968852682000

  Charge       = 0
  Multiplicity = 1
  Basis Set: AUG-CC-PV(D+D)Z
    Blend: AUG-CC-PV(D+D)Z
  Basis Set: (AUG-CC-PV(D+D)Z AUX)
    Blend: AUG-CC-PVDZ-JKFIT

    Orbital Energies [Eh]
    ---------------------

    Doubly Occupied:

       1Ap  -101.933052     2Ap  -101.932773     3Ap   -10.520125
       4Ap    -9.698667     5Ap    -9.698362     6Ap    -7.401892
       7Ap    -7.401599     1App   -7.396410     2App   -7.396108
       8Ap    -7.393108     9Ap    -7.392815    10Ap    -1.069002
      11Ap    -0.986383    12Ap    -0.727765    13Ap    -0.575203
      14Ap    -0.529588     3App   -0.525739     4App   -0.452575
      15Ap    -0.432240    16Ap    -0.365311

  @DF-RKS Final Energy:  -958.36528067720928

   => Energetics <=

    Nuclear Repulsion Energy =            117.4781737711784473
    One-Electron Energy =               -1554.3510570073162853
    Two-Electron Energy =                 525.7902576175144986
    DFT Exchange-Correlation Energy =     -47.4479735441306616
    Empirical Dispersion Energy =           0.0000000000000000
    VV10 Nonlocal Energy =                  0.1653184855445193
    Total Energy =                       -958.3652806772095119

  Dipole Moment: [D]
     X:     0.0000      Y:    -0.0080      Z:     1.0863     Total:     1.0864

  Vibration                       7                   8                   9
  Freq [cm^-1]                 349.7498            750.3945            791.4464
  Irrep                           A1                  A1                  B2
  Reduced mass [u]             29.4139             14.3028             13.8753
  Force const [mDyne/A]         2.1199              4.7452              5.1208

  ==> Thermochemistry Components <==

  Entropy, S
    Electronic S            0.000 [cal/(mol K)]        0.000 [J/(mol K)]       0.00000000 [mEh/K] (multiplicity = 1)
    Translational S        39.124 [cal/(mol K)]      163.696 [J/(mol K)]       0.06234835 [mEh/K] (mol. weight = 81.9377 [u], P = 101325.00 [Pa])
    Rotational S           22.375 [cal/(mol K)]       93.617 [J/(mol K)]       0.03565674 [mEh/K] (symmetry no. = 2)
    Vibrational S           1.633 [cal/(mol K)]        6.834 [J/(mol K)]       0.00260294 [mEh/K]
  Total S                  63.132 [cal/(mol K)]      264.146 [J/(mol K)]       0.10060804 [mEh/K]
  Correction S              0.000 [cal/(mol K)]        0.000 [J/(mol K)]       0.00000000 [mEh/K]

  Constant volume heat capacity, Cv
    Electronic Cv           0.000 [cal/(mol K)]        0.000 [J/(mol K)]       0.00000000 [mEh/K]
    Translational Cv        2.981 [cal/(mol K)]       12.472 [J/(mol K)]       0.00475022 [mEh/K]
    Rotational Cv           2.981 [cal/(mol K)]       12.472 [J/(mol K)]       0.00475022 [mEh/K]
    Vibrational Cv          2.977 [cal/(mol K)]       12.454 [J/(mol K)]       0.00474358 [mEh/K]
  Total Cv                  8.938 [cal/(mol K)]       37.398 [J/(mol K)]       0.01424401 [mEh/K]
  Correction Cv             0.000 [cal/(mol K)]        0.000 [J/(mol K)]       0.00000000 [mEh/K]

  Constant pressure heat capacity, Cp
    Electronic Cp           0.000 [cal/(mol K)]        0.000 [J/(mol K)]       0.00000000 [mEh/K]
    Translational Cp        4.968 [cal/(mol K)]       20.786 [J/(mol K)]       0.00791703 [mEh/K]
    Rotational Cp           2.981 [cal/(mol K)]       12.472 [J/(mol K)]       0.00475022 [mEh/K]
    Vibrational Cp          2.977 [cal/(mol K)]       12.454 [J/(mol K)]       0.00474358 [mEh/K]
  Total Cp                 10.925 [cal/(mol K)]       45.712 [J/(mol K)]       0.01741082 [mEh/K]
  Correction Cp             0.000 [cal/(mol K)]        0.000 [J/(mol K)]       0.00000000 [mEh/K]

  ==> Thermochemistry Energy Analysis <==

  Raw electronic energy, E0
  Total E0, Electronic energy at well bottom at 0 [K]                 -958.36528097 [Eh]

  Zero-point energy, ZPE_vib = Sum_i nu_i / 2
    Electronic ZPE          0.000 [kcal/mol]        0.000 [kJ/mol]       0.00000000 [Eh]
    Translational ZPE       0.000 [kcal/mol]        0.000 [kJ/mol]       0.00000000 [Eh]
    Rotational ZPE          0.000 [kcal/mol]        0.000 [kJ/mol]       0.00000000 [Eh]
    Vibrational ZPE         2.704 [kcal/mol]       11.314 [kJ/mol]       0.00430936 [Eh]         945.795 [cm^-1]
  Correction ZPE            2.704 [kcal/mol]       11.314 [kJ/mol]       0.00430936 [Eh]         945.795 [cm^-1]
  Total ZPE, Electronic energy at 0 [K]                               -958.36097161 [Eh]

  Thermal Energy, E (includes ZPE)
    Electronic E            0.000 [kcal/mol]        0.000 [kJ/mol]       0.00000000 [Eh]
    Translational E         0.889 [kcal/mol]        3.718 [kJ/mol]       0.00141628 [Eh]
    Rotational E            0.889 [kcal/mol]        3.718 [kJ/mol]       0.00141628 [Eh]
    Vibrational E           3.041 [kcal/mol]       12.723 [kJ/mol]       0.00484581 [Eh]
  Correction E              4.818 [kcal/mol]       20.160 [kJ/mol]       0.00767836 [Eh]
  Total E, Electronic energy at  298.15 [K]                           -958.35760261 [Eh]

  Enthalpy, H_trans = E_trans + k_B * T
    Electronic H            0.000 [kcal/mol]        0.000 [kJ/mol]       0.00000000 [Eh]
    Translational H         1.481 [kcal/mol]        6.197 [kJ/mol]       0.00236046 [Eh]
    Rotational H            0.889 [kcal/mol]        3.718 [kJ/mol]       0.00141628 [Eh]
    Vibrational H           3.041 [kcal/mol]       12.723 [kJ/mol]       0.00484581 [Eh]
  Correction H              5.411 [kcal/mol]       22.638 [kJ/mol]       0.00862255 [Eh]
  Total H, Enthalpy at  298.15 [K]                                    -958.35665843 [Eh]

  Gibbs free energy, G = H - T * S
    Electronic G            0.000 [kcal/mol]        0.000 [kJ/mol]       0.00000000 [Eh]
    Translational G       -10.184 [kcal/mol]      -42.608 [kJ/mol]      -0.01622870 [Eh]
    Rotational G           -5.782 [kcal/mol]      -24.193 [kJ/mol]      -0.00921478 [Eh]
    Vibrational G           2.554 [kcal/mol]       10.685 [kJ/mol]       0.00406974 [Eh]
  Correction G            -13.412 [kcal/mol]      -56.117 [kJ/mol]      -0.02137374 [Eh]
  Total G, Free enthalpy at  298.15 [K]                               -958.38665471 [Eh]

*** Psi4 exiting successfully. Buy a developer a beer!
