                               Psi4 1.3.2 release

  ==> Input File <==

--------------------------------------------------------------------------
memory 144 GB

molecule {
0 1
C 0.0000000000 0.0000000000 0.0000000000
F 0.0000000000 0.0000000000 1.2971000000
F 1.2538059978 0.0000000000 -0.3323235319
}

set dynamic_level 1
set basis aug-cc-pV(D+d)Z

optimize("wB97M-V")
frequencies("wB97M-V")
--------------------------------------------------------------------------

    Molecular point group: c2v
  Charge       = 0
  Multiplicity = 1
  Basis Set: AUG-CC-PV(D+D)Z
    Blend: AUG-CC-PV(D+D)Z
  Basis Set: (AUG-CC-PV(D+D)Z AUX)
    Blend: AUG-CC-PVDZ-JKFIT
  @DF-RKS Final Energy:  -237.68002928293262
    Total Energy =                       -237.6800292829326224
    Molecular point group: c2v
  Basis Set: AUG-CC-PV(D+D)Z
    Blend: AUG-CC-PV(D+D)Z
  Basis Set: (AUG-CC-PV(D+D)Z AUX)
    Blend: AUG-CC-PVDZ-JKFIT
  @DF-RKS Final Energy:  -237.68006098511037
    Total Energy =                       -237.6800609851104014
  Basis Set: AUG-CC-PV(D+D)Z
    Blend: AUG-CC-PV(D+D)Z
  Basis Set: (AUG-CC-PV(D+D)Z AUX)
    Blend: AUG-CC-PVDZ-JKFIT
  @DF-RKS Final Energy:  -237.67999625023606
    Total Energy =                       -237.6799962502360302
  Basis Set: AUG-CC-PV(D+D)Z
    Blend: AUG-CC-PV(D+D)Z
  Basis Set: (AUG-CC-PV(D+D)Z AUX)
    Blend: AUG-CC-PVDZ-JKFIT
  @DF-RKS Final Energy:  -237.68001197700656
    Total Energy =                       -237.6800119770065294
  @DF-RKS Final Energy:  -237.68004597859462
    Total Energy =                       -237.6800459785946202
  @DF-RKS Final Energy:  -237.68044108650665
    Total Energy =                       -237.6804410865066757
  @DF-RKS Final Energy:  -237.68044932448581
    Total Energy =                       -237.6804493244858065
  @DF-RKS Final Energy:  -237.68043157017948
    Total Energy =                       -237.6804315701794792
  @DF-RKS Final Energy:  -237.68043474188434
    Total Energy =                       -237.6804347418843690
  @DF-RKS Final Energy:  -237.68044684874388
    Total Energy =                       -237.6804468487438839
  @DF-RKS Final Energy:  -237.68047989829211
    Total Energy =                       -237.6804798982921056
  @DF-RKS Final Energy:  -237.68048075041827
    Total Energy =                       -237.6804807504182691
  @DF-RKS Final Energy:  -237.68047779620289
    Total Energy =                       -237.6804777962028936
  @DF-RKS Final Energy:  -237.68048119193060
    Total Energy =                       -237.6804811919305962
  @DF-RKS Final Energy:  -237.68047804606528
    Total Energy =                       -237.6804780460652751
  @DF-RKS Final Energy:  -237.68048292999728
    Total Energy =                       -237.6804829299972823
  @DF-RKS Final Energy:  -237.68048122287902
    Total Energy =                       -237.6804812228790240
  @DF-RKS Final Energy:  -237.68048338314114
    Total Energy =                       -237.6804833831411088
  @DF-RKS Final Energy:  -237.68048169573729
    Total Energy =                       -237.6804816957372850
  @DF-RKS Final Energy:  -237.68048359760067
    Total Energy =                       -237.6804835976006984
  @DF-RKS Final Energy:  -237.68048510392484
    Total Energy =                       -237.6804851039248376
  @DF-RKS Final Energy:  -237.68048448861586
    Total Energy =                       -237.6804844886158605
  @DF-RKS Final Energy:  -237.68048446953301
    Total Energy =                       -237.6804844695330416
  @DF-RKS Final Energy:  -237.68048482761748
    Total Energy =                       -237.6804848276174766
  @DF-RKS Final Energy:  -237.68048481944567
    Total Energy =                       -237.6804848194456667
  **** Optimization is complete! (in 5 steps) ****
    Final optimized geometry and variables:
  @DF-RKS Final Energy:  -237.68048510347239
    Total Energy =                       -237.6804851034723640
  @DF-RKS Final Energy:  -237.68048448795341
    Total Energy =                       -237.6804844879533789
  @DF-RKS Final Energy:  -237.68048447034772
    Total Energy =                       -237.6804844703477215
  @DF-RKS Final Energy:  -237.68048482730441
    Total Energy =                       -237.6804848273044115
  @DF-RKS Final Energy:  -237.68048481875837
    Total Energy =                       -237.6804848187583730
  @DF-RKS Final Energy:  -237.68048510347245
    Total Energy =                       -237.6804851034724493
  @DF-RKS Final Energy:  -237.68048448795369
    Total Energy =                       -237.6804844879536915
  @DF-RKS Final Energy:  -237.68048447034772
    Total Energy =                       -237.6804844703477215
  @DF-RKS Final Energy:  -237.68048482730447
    Total Energy =                       -237.6804848273044684
  Basis Set: AUG-CC-PV(D+D)Z
    Blend: AUG-CC-PV(D+D)Z
  Basis Set: (AUG-CC-PV(D+D)Z AUX)
    Blend: AUG-CC-PVDZ-JKFIT
  @DF-RKS Final Energy:  -237.68048481875857
    Total Energy =                       -237.6804848187585719
  Basis Set: AUG-CC-PV(D+D)Z
    Blend: AUG-CC-PV(D+D)Z
  Basis Set: (AUG-CC-PV(D+D)Z AUX)
    Blend: AUG-CC-PVDZ-JKFIT
  @DF-RKS Final Energy:  -237.68048454182988
    Total Energy =                       -237.6804845418298839
  Multiplicity = 1
  Basis Set: AUG-CC-PV(D+D)Z
    Blend: AUG-CC-PV(D+D)Z
  Basis Set: (AUG-CC-PV(D+D)Z AUX)
    Blend: AUG-CC-PVDZ-JKFIT
  @DF-RKS Final Energy:  -237.68048456543298
    Total Energy =                       -237.6804845654329768
    Molecular point group: cs

    Geometry (in Angstrom), charge = 0, multiplicity = 1:

       Center              X                  Y                   Z               Mass
    ------------   -----------------  -----------------  -----------------  -----------------
         C            0.000000000000    -0.000621814141    -0.614739728517    12.000000000000
         F            0.000000000000     1.034888114956     0.194298173884    18.998403162730
         F            0.000000000000    -1.034495357226     0.193991130171    18.998403162730

  Charge       = 0
  Multiplicity = 1
  Basis Set: AUG-CC-PV(D+D)Z
    Blend: AUG-CC-PV(D+D)Z
  Basis Set: (AUG-CC-PV(D+D)Z AUX)
    Blend: AUG-CC-PVDZ-JKFIT

    Orbital Energies [Eh]
    ---------------------

    Doubly Occupied:

       1Ap   -25.013945     2Ap   -25.013324     3Ap   -10.577783
       4Ap    -1.481556     5Ap    -1.407512     6Ap    -0.838643
       7Ap    -0.722064     1App   -0.676612     8Ap    -0.672269
       2App   -0.596480     9Ap    -0.571234    10Ap    -0.422786

  @DF-RKS Final Energy:  -237.68048453705489

   => Energetics <=

    Nuclear Repulsion Energy =             64.2287504758669598
    One-Electron Energy =                -455.7934686534656521
    Two-Electron Energy =                 172.9751322791238692
    DFT Exchange-Correlation Energy =     -19.1915087935295574
    Empirical Dispersion Energy =           0.0000000000000000
    VV10 Nonlocal Energy =                  0.1006101549494843
    Total Energy =                       -237.6804845370548946

  Dipole Moment: [D]
     X:     0.0000      Y:    -0.0081      Z:     0.4912     Total:     0.4913

  Vibration                       7                   8                   9
  Freq [cm^-1]                 658.7634           1094.2527           1216.0060
  Irrep                           A1                  B2                  A1
  Reduced mass [u]             17.7987             13.7022             13.8088
  Force const [mDyne/A]         4.5509              9.6666             12.0303

  ==> Thermochemistry Components <==

  Entropy, S
    Electronic S            0.000 [cal/(mol K)]        0.000 [J/(mol K)]       0.00000000 [mEh/K] (multiplicity = 1)
    Translational S        37.652 [cal/(mol K)]      157.535 [J/(mol K)]       0.06000175 [mEh/K] (mol. weight = 49.9968 [u], P = 101325.00 [Pa])
    Rotational S           19.494 [cal/(mol K)]       81.565 [J/(mol K)]       0.03106638 [mEh/K] (symmetry no. = 2)
    Vibrational S           0.461 [cal/(mol K)]        1.931 [J/(mol K)]       0.00073532 [mEh/K]
  Total S                  57.608 [cal/(mol K)]      241.030 [J/(mol K)]       0.09180344 [mEh/K]
  Correction S              0.000 [cal/(mol K)]        0.000 [J/(mol K)]       0.00000000 [mEh/K]

  Constant volume heat capacity, Cv
    Electronic Cv           0.000 [cal/(mol K)]        0.000 [J/(mol K)]       0.00000000 [mEh/K]
    Translational Cv        2.981 [cal/(mol K)]       12.472 [J/(mol K)]       0.00475022 [mEh/K]
    Rotational Cv           2.981 [cal/(mol K)]       12.472 [J/(mol K)]       0.00475022 [mEh/K]
    Vibrational Cv          1.390 [cal/(mol K)]        5.815 [J/(mol K)]       0.00221472 [mEh/K]
  Total Cv                  7.351 [cal/(mol K)]       30.758 [J/(mol K)]       0.01171515 [mEh/K]
  Correction Cv             0.000 [cal/(mol K)]        0.000 [J/(mol K)]       0.00000000 [mEh/K]

  Constant pressure heat capacity, Cp
    Electronic Cp           0.000 [cal/(mol K)]        0.000 [J/(mol K)]       0.00000000 [mEh/K]
    Translational Cp        4.968 [cal/(mol K)]       20.786 [J/(mol K)]       0.00791703 [mEh/K]
    Rotational Cp           2.981 [cal/(mol K)]       12.472 [J/(mol K)]       0.00475022 [mEh/K]
    Vibrational Cp          1.390 [cal/(mol K)]        5.815 [J/(mol K)]       0.00221472 [mEh/K]
  Total Cp                  9.339 [cal/(mol K)]       39.073 [J/(mol K)]       0.01488196 [mEh/K]
  Correction Cp             0.000 [cal/(mol K)]        0.000 [J/(mol K)]       0.00000000 [mEh/K]

  ==> Thermochemistry Energy Analysis <==

  Raw electronic energy, E0
  Total E0, Electronic energy at well bottom at 0 [K]                 -237.68048510 [Eh]

  Zero-point energy, ZPE_vib = Sum_i nu_i / 2
    Electronic ZPE          0.000 [kcal/mol]        0.000 [kJ/mol]       0.00000000 [Eh]
    Translational ZPE       0.000 [kcal/mol]        0.000 [kJ/mol]       0.00000000 [Eh]
    Rotational ZPE          0.000 [kcal/mol]        0.000 [kJ/mol]       0.00000000 [Eh]
    Vibrational ZPE         4.244 [kcal/mol]       17.759 [kJ/mol]       0.00676393 [Eh]        1484.511 [cm^-1]
  Correction ZPE            4.244 [kcal/mol]       17.759 [kJ/mol]       0.00676393 [Eh]        1484.511 [cm^-1]
  Total ZPE, Electronic energy at 0 [K]                               -237.67372117 [Eh]

  Thermal Energy, E (includes ZPE)
    Electronic E            0.000 [kcal/mol]        0.000 [kJ/mol]       0.00000000 [Eh]
    Translational E         0.889 [kcal/mol]        3.718 [kJ/mol]       0.00141628 [Eh]
    Rotational E            0.889 [kcal/mol]        3.718 [kJ/mol]       0.00141628 [Eh]
    Vibrational E           4.352 [kcal/mol]       18.209 [kJ/mol]       0.00693553 [Eh]
  Correction E              6.130 [kcal/mol]       25.646 [kJ/mol]       0.00976808 [Eh]
  Total E, Electronic energy at  298.15 [K]                           -237.67071702 [Eh]

  Enthalpy, H_trans = E_trans + k_B * T
    Electronic H            0.000 [kcal/mol]        0.000 [kJ/mol]       0.00000000 [Eh]
    Translational H         1.481 [kcal/mol]        6.197 [kJ/mol]       0.00236046 [Eh]
    Rotational H            0.889 [kcal/mol]        3.718 [kJ/mol]       0.00141628 [Eh]
    Vibrational H           4.352 [kcal/mol]       18.209 [kJ/mol]       0.00693553 [Eh]
  Correction H              6.722 [kcal/mol]       28.125 [kJ/mol]       0.01071227 [Eh]
  Total H, Enthalpy at  298.15 [K]                                    -237.66977284 [Eh]

  Gibbs free energy, G = H - T * S
    Electronic G            0.000 [kcal/mol]        0.000 [kJ/mol]       0.00000000 [Eh]
    Translational G        -9.745 [kcal/mol]      -40.772 [kJ/mol]      -0.01552906 [Eh]
    Rotational G           -4.924 [kcal/mol]      -20.600 [kJ/mol]      -0.00784616 [Eh]
    Vibrational G           4.215 [kcal/mol]       17.634 [kJ/mol]       0.00671629 [Eh]
  Correction G            -10.454 [kcal/mol]      -43.738 [kJ/mol]      -0.01665893 [Eh]
  Total G, Free enthalpy at  298.15 [K]                               -237.69714404 [Eh]

*** Psi4 exiting successfully. Buy a developer a beer!
