                               Psi4 1.3.2 release

  ==> Input File <==

--------------------------------------------------------------------------
memory 144 GB

molecule {
0 1
Cl 0.0000000000 0.0000000000 0.0000000000
Cl 0.0000000000 0.0000000000 1.9965761200
}

set dynamic_level 1
set basis aug-cc-pV(D+d)Z

optimize("wB97M-V")
frequencies("wB97M-V")
--------------------------------------------------------------------------

    Molecular point group: d2h
  Charge       = 0
  Multiplicity = 1
  Basis Set: AUG-CC-PV(D+D)Z
    Blend: AUG-CC-PV(D+D)Z
  Basis Set: (AUG-CC-PV(D+D)Z AUX)
    Blend: AUG-CC-PVDZ-JKFIT
  @DF-RKS Final Energy:  -920.33295589444731
    Total Energy =                       -920.3329558944473092
    Molecular point group: d2h
  Basis Set: AUG-CC-PV(D+D)Z
    Blend: AUG-CC-PV(D+D)Z
  Basis Set: (AUG-CC-PV(D+D)Z AUX)
    Blend: AUG-CC-PVDZ-JKFIT
  @DF-RKS Final Energy:  -920.33295869926292
    Total Energy =                       -920.3329586992630311
  Basis Set: AUG-CC-PV(D+D)Z
    Blend: AUG-CC-PV(D+D)Z
  Basis Set: (AUG-CC-PV(D+D)Z AUX)
    Blend: AUG-CC-PVDZ-JKFIT
  @DF-RKS Final Energy:  -920.33295277325567
    Total Energy =                       -920.3329527732556699
  Basis Set: AUG-CC-PV(D+D)Z
    Blend: AUG-CC-PV(D+D)Z
  Basis Set: (AUG-CC-PV(D+D)Z AUX)
    Blend: AUG-CC-PVDZ-JKFIT
  @DF-RKS Final Energy:  -920.33296791825273
    Total Energy =                       -920.3329679182527343
  @DF-RKS Final Energy:  -920.33296886575283
    Total Energy =                       -920.3329688657528322
  @DF-RKS Final Energy:  -920.33296666027775
    Total Energy =                       -920.3329666602777479
  @DF-RKS Final Energy:  -920.33296987757944
    Total Energy =                       -920.3329698775794441
  @DF-RKS Final Energy:  -920.33296973852327
    Total Energy =                       -920.3329697385232748
  @DF-RKS Final Energy:  -920.33296970770346
    Total Energy =                       -920.3329697077034552
  **** Optimization is complete! (in 3 steps) ****
    Final optimized geometry and variables:
  @DF-RKS Final Energy:  -920.33296987757933
    Total Energy =                       -920.3329698775793304
  @DF-RKS Final Energy:  -920.33296973852316
    Total Energy =                       -920.3329697385231611
  Basis Set: AUG-CC-PV(D+D)Z
    Blend: AUG-CC-PV(D+D)Z
  Basis Set: (AUG-CC-PV(D+D)Z AUX)
    Blend: AUG-CC-PVDZ-JKFIT
  @DF-RKS Final Energy:  -920.33296970770425
    Total Energy =                       -920.3329697077041374
  Basis Set: AUG-CC-PV(D+D)Z
    Blend: AUG-CC-PV(D+D)Z
  Basis Set: (AUG-CC-PV(D+D)Z AUX)
    Blend: AUG-CC-PVDZ-JKFIT
  @DF-RKS Final Energy:  -920.33296987757967
    Total Energy =                       -920.3329698775797851
  Multiplicity = 1
  Basis Set: AUG-CC-PV(D+D)Z
    Blend: AUG-CC-PV(D+D)Z
  Basis Set: (AUG-CC-PV(D+D)Z AUX)
    Blend: AUG-CC-PVDZ-JKFIT
  @DF-RKS Final Energy:  -920.33296973852316
    Total Energy =                       -920.3329697385232748
    Molecular point group: d2h

    Geometry (in Angstrom), charge = 0, multiplicity = 1:

       Center              X                  Y                   Z               Mass
    ------------   -----------------  -----------------  -----------------  -----------------
         CL           0.000000000000     0.000000000000    -1.000956383221    34.968852682000
         CL           0.000000000000     0.000000000000     1.000956383221    34.968852682000

  Charge       = 0
  Multiplicity = 1
  Basis Set: AUG-CC-PV(D+D)Z
    Blend: AUG-CC-PV(D+D)Z
  Basis Set: (AUG-CC-PV(D+D)Z AUX)
    Blend: AUG-CC-PVDZ-JKFIT

    Orbital Energies [Eh]
    ---------------------

    Doubly Occupied:

       1B1u -101.942106     1Ag  -101.942105     2B1u   -9.704960
       2Ag    -9.704894     3Ag    -7.412931     3B1u   -7.412809
       1B3g   -7.398860     1B2g   -7.398860     1B2u   -7.398858
       1B3u   -7.398858     4Ag    -1.063688     4B1u   -0.893769
       5Ag    -0.569889     2B2u   -0.516432     2B3u   -0.516432
       2B2g   -0.406925     2B3g   -0.406925

  @DF-RKS Final Energy:  -920.33296970770425

   => Energetics <=

    Nuclear Repulsion Energy =             76.3930459145226024
    One-Electron Energy =               -1421.9783066657137169
    Two-Electron Energy =                 468.7658446506255245
    DFT Exchange-Correlation Energy =     -43.6558878276187414
    Empirical Dispersion Energy =           0.0000000000000000
    VV10 Nonlocal Energy =                  0.1423342204800684
    Total Energy =                       -920.3329697077042511

  Dipole Moment: [D]
     X:     0.0000      Y:     0.0000      Z:    -0.0000     Total:     0.0000

  Vibration                       6
  Freq [cm^-1]                 571.4335
  Irrep                           Ag
  Reduced mass [u]             34.9689
  Force const [mDyne/A]         6.7276

  ==> Thermochemistry Components <==

  Entropy, S
    Electronic S            0.000 [cal/(mol K)]        0.000 [J/(mol K)]       0.00000000 [mEh/K] (multiplicity = 1)
    Translational S        38.652 [cal/(mol K)]      161.721 [J/(mol K)]       0.06159614 [mEh/K] (mol. weight = 69.9377 [u], P = 101325.00 [Pa])
    Rotational S           14.042 [cal/(mol K)]       58.750 [J/(mol K)]       0.02237669 [mEh/K] (symmetry no. = 2)
    Vibrational S           0.501 [cal/(mol K)]        2.098 [J/(mol K)]       0.00079917 [mEh/K]
  Total S                  53.195 [cal/(mol K)]      222.569 [J/(mol K)]       0.08477200 [mEh/K]
  Correction S              0.000 [cal/(mol K)]        0.000 [J/(mol K)]       0.00000000 [mEh/K]

  Constant volume heat capacity, Cv
    Electronic Cv           0.000 [cal/(mol K)]        0.000 [J/(mol K)]       0.00000000 [mEh/K]
    Translational Cv        2.981 [cal/(mol K)]       12.472 [J/(mol K)]       0.00475022 [mEh/K]
    Rotational Cv           1.987 [cal/(mol K)]        8.314 [J/(mol K)]       0.00316681 [mEh/K]
    Vibrational Cv          1.093 [cal/(mol K)]        4.573 [J/(mol K)]       0.00174186 [mEh/K]
  Total Cv                  6.061 [cal/(mol K)]       25.359 [J/(mol K)]       0.00965889 [mEh/K]
  Correction Cv             0.000 [cal/(mol K)]        0.000 [J/(mol K)]       0.00000000 [mEh/K]

  Constant pressure heat capacity, Cp
    Electronic Cp           0.000 [cal/(mol K)]        0.000 [J/(mol K)]       0.00000000 [mEh/K]
    Translational Cp        4.968 [cal/(mol K)]       20.786 [J/(mol K)]       0.00791703 [mEh/K]
    Rotational Cp           1.987 [cal/(mol K)]        8.314 [J/(mol K)]       0.00316681 [mEh/K]
    Vibrational Cp          1.093 [cal/(mol K)]        4.573 [J/(mol K)]       0.00174186 [mEh/K]
  Total Cp                  8.048 [cal/(mol K)]       33.674 [J/(mol K)]       0.01282570 [mEh/K]
  Correction Cp             0.000 [cal/(mol K)]        0.000 [J/(mol K)]       0.00000000 [mEh/K]

  ==> Thermochemistry Energy Analysis <==

  Raw electronic energy, E0
  Total E0, Electronic energy at well bottom at 0 [K]                 -920.33296988 [Eh]

  Zero-point energy, ZPE_vib = Sum_i nu_i / 2
    Electronic ZPE          0.000 [kcal/mol]        0.000 [kJ/mol]       0.00000000 [Eh]
    Translational ZPE       0.000 [kcal/mol]        0.000 [kJ/mol]       0.00000000 [Eh]
    Rotational ZPE          0.000 [kcal/mol]        0.000 [kJ/mol]       0.00000000 [Eh]
    Vibrational ZPE         0.817 [kcal/mol]        3.418 [kJ/mol]       0.00130182 [Eh]         285.717 [cm^-1]
  Correction ZPE            0.817 [kcal/mol]        3.418 [kJ/mol]       0.00130182 [Eh]         285.717 [cm^-1]
  Total ZPE, Electronic energy at 0 [K]                               -920.33166806 [Eh]

  Thermal Energy, E (includes ZPE)
    Electronic E            0.000 [kcal/mol]        0.000 [kJ/mol]       0.00000000 [Eh]
    Translational E         0.889 [kcal/mol]        3.718 [kJ/mol]       0.00141628 [Eh]
    Rotational E            0.592 [kcal/mol]        2.479 [kJ/mol]       0.00094418 [Eh]
    Vibrational E           0.928 [kcal/mol]        3.881 [kJ/mol]       0.00147820 [Eh]
  Correction E              2.409 [kcal/mol]       10.078 [kJ/mol]       0.00383867 [Eh]
  Total E, Electronic energy at  298.15 [K]                           -920.32913121 [Eh]

  Enthalpy, H_trans = E_trans + k_B * T
    Electronic H            0.000 [kcal/mol]        0.000 [kJ/mol]       0.00000000 [Eh]
    Translational H         1.481 [kcal/mol]        6.197 [kJ/mol]       0.00236046 [Eh]
    Rotational H            0.592 [kcal/mol]        2.479 [kJ/mol]       0.00094418 [Eh]
    Vibrational H           0.928 [kcal/mol]        3.881 [kJ/mol]       0.00147820 [Eh]
  Correction H              3.001 [kcal/mol]       12.557 [kJ/mol]       0.00478285 [Eh]
  Total H, Enthalpy at  298.15 [K]                                    -920.32818703 [Eh]

  Gibbs free energy, G = H - T * S
    Electronic G            0.000 [kcal/mol]        0.000 [kJ/mol]       0.00000000 [Eh]
    Translational G       -10.043 [kcal/mol]      -42.020 [kJ/mol]      -0.01600443 [Eh]
    Rotational G           -3.594 [kcal/mol]      -15.037 [kJ/mol]      -0.00572742 [Eh]
    Vibrational G           0.778 [kcal/mol]        3.255 [kJ/mol]       0.00123993 [Eh]
  Correction G            -12.859 [kcal/mol]      -53.802 [kJ/mol]      -0.02049192 [Eh]
  Total G, Free enthalpy at  298.15 [K]                               -920.35346180 [Eh]

*** Psi4 exiting successfully. Buy a developer a beer!
