                               Psi4 1.3.2 release

  ==> Input File <==

--------------------------------------------------------------------------
memory 144 GB

molecule {
0 1
Cl 0.0000000000 0.0000000000 0.0000000000
C 0.0000000000 0.0000000000 1.6357056100
N 0.0000000000 0.0000000000 2.7976884200
}

set dynamic_level 1
set basis aug-cc-pV(D+d)Z

optimize("wB97M-V")
frequencies("wB97M-V")
--------------------------------------------------------------------------

    Molecular point group: c2v
  Charge       = 0
  Multiplicity = 1
  Basis Set: AUG-CC-PV(D+D)Z
    Blend: AUG-CC-PV(D+D)Z
  Basis Set: (AUG-CC-PV(D+D)Z AUX)
    Blend: AUG-CC-PVDZ-JKFIT
  @DF-RKS Final Energy:  -552.99048955110970
    Total Energy =                       -552.9904895511097038
    Molecular point group: c2v
  Basis Set: AUG-CC-PV(D+D)Z
    Blend: AUG-CC-PV(D+D)Z
  Basis Set: (AUG-CC-PV(D+D)Z AUX)
    Blend: AUG-CC-PVDZ-JKFIT
  @DF-RKS Final Energy:  -552.99049262611300
    Total Energy =                       -552.9904926261129958
  Basis Set: AUG-CC-PV(D+D)Z
    Blend: AUG-CC-PV(D+D)Z
  Basis Set: (AUG-CC-PV(D+D)Z AUX)
    Blend: AUG-CC-PVDZ-JKFIT
  @DF-RKS Final Energy:  -552.99048587245034
    Total Energy =                       -552.9904858724504493
  Basis Set: AUG-CC-PV(D+D)Z
    Blend: AUG-CC-PV(D+D)Z
  Basis Set: (AUG-CC-PV(D+D)Z AUX)
    Blend: AUG-CC-PVDZ-JKFIT
  @DF-RKS Final Energy:  -552.99047238305820
    Total Energy =                       -552.9904723830580906
  @DF-RKS Final Energy:  -552.99050157904958
    Total Energy =                       -552.9905015790496918
  @DF-RKS Final Energy:  -552.99051360139219
    Total Energy =                       -552.9905136013920810
  @DF-RKS Final Energy:  -552.99051408870616
    Total Energy =                       -552.9905140887062771
  @DF-RKS Final Energy:  -552.99051252299773
    Total Energy =                       -552.9905125229977330
  @DF-RKS Final Energy:  -552.99051004600403
    Total Energy =                       -552.9905100460039193
  @DF-RKS Final Energy:  -552.99051194722438
    Total Energy =                       -552.9905119472243769
  @DF-RKS Final Energy:  -552.99051412446772
    Total Energy =                       -552.9905141244676088
  @DF-RKS Final Energy:  -552.99051390282102
    Total Energy =                       -552.9905139028209078
  @DF-RKS Final Energy:  -552.99051375830777
    Total Energy =                       -552.9905137583078840
  @DF-RKS Final Energy:  -552.99051158769112
    Total Energy =                       -552.9905115876912305
  @DF-RKS Final Energy:  -552.99051145291821
    Total Energy =                       -552.9905114529180992
  **** Optimization is complete! (in 3 steps) ****
    Final optimized geometry and variables:
  @DF-RKS Final Energy:  -552.99051412504900
    Total Energy =                       -552.9905141250490033
  @DF-RKS Final Energy:  -552.99051390282625
    Total Energy =                       -552.9905139028262511
  @DF-RKS Final Energy:  -552.99051375897602
    Total Energy =                       -552.9905137589759079
  @DF-RKS Final Energy:  -552.99051158722932
    Total Energy =                       -552.9905115872293209
  @DF-RKS Final Energy:  -552.99051145293151
    Total Energy =                       -552.9905114529316279
  @DF-RKS Final Energy:  -552.99051412504957
    Total Energy =                       -552.9905141250496854
  @DF-RKS Final Energy:  -552.99051390282625
    Total Energy =                       -552.9905139028261374
  @DF-RKS Final Energy:  -552.99051375897614
    Total Energy =                       -552.9905137589760216
  @DF-RKS Final Energy:  -552.99051158723012
    Total Energy =                       -552.9905115872300030
  @DF-RKS Final Energy:  -552.99051145293231
    Total Energy =                       -552.9905114529323100
  Basis Set: AUG-CC-PV(D+D)Z
    Blend: AUG-CC-PV(D+D)Z
  Basis Set: (AUG-CC-PV(D+D)Z AUX)
    Blend: AUG-CC-PVDZ-JKFIT
  @DF-RKS Final Energy:  -552.99051153107325
    Total Energy =                       -552.9905115310733663
  Basis Set: AUG-CC-PV(D+D)Z
    Blend: AUG-CC-PV(D+D)Z
  Basis Set: (AUG-CC-PV(D+D)Z AUX)
    Blend: AUG-CC-PVDZ-JKFIT
  @DF-RKS Final Energy:  -552.99051180875233
    Total Energy =                       -552.9905118087523306
  Multiplicity = 1
  Basis Set: AUG-CC-PV(D+D)Z
    Blend: AUG-CC-PV(D+D)Z
  Basis Set: (AUG-CC-PV(D+D)Z AUX)
    Blend: AUG-CC-PVDZ-JKFIT
  @DF-RKS Final Energy:  -552.99051405356897
    Total Energy =                       -552.9905140535689725
    Molecular point group: cs

    Geometry (in Angstrom), charge = 0, multiplicity = 1:

       Center              X                  Y                   Z               Mass
    ------------   -----------------  -----------------  -----------------  -----------------
         CL           0.000000000000    -0.000093338885    -0.965517025727    34.968852682000
         C            0.000000000000     0.000656661104     0.674088545682    12.000000000000
         N            0.000000000000    -0.000329640445     1.833451717694    14.003074004430

  Charge       = 0
  Multiplicity = 1
  Basis Set: AUG-CC-PV(D+D)Z
    Blend: AUG-CC-PV(D+D)Z
  Basis Set: (AUG-CC-PV(D+D)Z AUX)
    Blend: AUG-CC-PVDZ-JKFIT

    Orbital Energies [Eh]
    ---------------------

    Doubly Occupied:

       1Ap  -101.976651     2Ap   -14.559622     3Ap   -10.468491
       4Ap    -9.739938     5Ap    -7.445775     1App   -7.434898
       6Ap    -7.434898     7Ap    -1.095330     8Ap    -1.035473
       9Ap    -0.689425     2App   -0.551583    10Ap    -0.551583
      11Ap    -0.505165     3App   -0.436844    12Ap    -0.436844

  @DF-RKS Final Energy:  -552.99051405258990

   => Energetics <=

    Nuclear Repulsion Energy =             74.5888547469378125
    One-Electron Energy =                -907.2736669231717315
    Two-Electron Energy =                 310.1821108454187197
    DFT Exchange-Correlation Energy =     -30.6122220004083765
    Empirical Dispersion Energy =           0.0000000000000000
    VV10 Nonlocal Energy =                  0.1244092786336483
    Total Energy =                       -552.9905140525899014

  Dipole Moment: [D]
     X:     0.0000      Y:     0.0007      Z:    -2.9720     Total:     2.9720

  Vibration                       6                   7                   8
  Freq [cm^-1]                 388.7258            391.3789            759.7022
  Irrep                           B1                  B2                  A1
  Reduced mass [u]             12.7615             12.7615             17.9688
  Force const [mDyne/A]         1.1362              1.1517              6.1102

  Vibration                       9
  Freq [cm^-1]                2356.1610
  Irrep                           A1
  Reduced mass [u]             12.7408
  Force const [mDyne/A]        41.6732

  ==> Thermochemistry Components <==

  Entropy, S
    Electronic S            0.000 [cal/(mol K)]        0.000 [J/(mol K)]       0.00000000 [mEh/K] (multiplicity = 1)
    Translational S        38.243 [cal/(mol K)]      160.010 [J/(mol K)]       0.06094445 [mEh/K] (mol. weight = 60.9719 [u], P = 101325.00 [Pa])
    Rotational S           15.804 [cal/(mol K)]       66.126 [J/(mol K)]       0.02518597 [mEh/K] (symmetry no. = 1)
    Vibrational S           2.243 [cal/(mol K)]        9.384 [J/(mol K)]       0.00357429 [mEh/K]
  Total S                  56.291 [cal/(mol K)]      235.520 [J/(mol K)]       0.08970471 [mEh/K]
  Correction S              0.000 [cal/(mol K)]        0.000 [J/(mol K)]       0.00000000 [mEh/K]

  Constant volume heat capacity, Cv
    Electronic Cv           0.000 [cal/(mol K)]        0.000 [J/(mol K)]       0.00000000 [mEh/K]
    Translational Cv        2.981 [cal/(mol K)]       12.472 [J/(mol K)]       0.00475022 [mEh/K]
    Rotational Cv           1.987 [cal/(mol K)]        8.314 [J/(mol K)]       0.00316681 [mEh/K]
    Vibrational Cv          3.705 [cal/(mol K)]       15.503 [J/(mol K)]       0.00590473 [mEh/K]
  Total Cv                  8.673 [cal/(mol K)]       36.289 [J/(mol K)]       0.01382175 [mEh/K]
  Correction Cv             0.000 [cal/(mol K)]        0.000 [J/(mol K)]       0.00000000 [mEh/K]

  Constant pressure heat capacity, Cp
    Electronic Cp           0.000 [cal/(mol K)]        0.000 [J/(mol K)]       0.00000000 [mEh/K]
    Translational Cp        4.968 [cal/(mol K)]       20.786 [J/(mol K)]       0.00791703 [mEh/K]
    Rotational Cp           1.987 [cal/(mol K)]        8.314 [J/(mol K)]       0.00316681 [mEh/K]
    Vibrational Cp          3.705 [cal/(mol K)]       15.503 [J/(mol K)]       0.00590473 [mEh/K]
  Total Cp                 10.660 [cal/(mol K)]       44.603 [J/(mol K)]       0.01698856 [mEh/K]
  Correction Cp             0.000 [cal/(mol K)]        0.000 [J/(mol K)]       0.00000000 [mEh/K]

  ==> Thermochemistry Energy Analysis <==

  Raw electronic energy, E0
  Total E0, Electronic energy at well bottom at 0 [K]                 -552.99051413 [Eh]

  Zero-point energy, ZPE_vib = Sum_i nu_i / 2
    Electronic ZPE          0.000 [kcal/mol]        0.000 [kJ/mol]       0.00000000 [Eh]
    Translational ZPE       0.000 [kcal/mol]        0.000 [kJ/mol]       0.00000000 [Eh]
    Rotational ZPE          0.000 [kcal/mol]        0.000 [kJ/mol]       0.00000000 [Eh]
    Vibrational ZPE         5.570 [kcal/mol]       23.303 [kJ/mol]       0.00887567 [Eh]        1947.984 [cm^-1]
  Correction ZPE            5.570 [kcal/mol]       23.303 [kJ/mol]       0.00887567 [Eh]        1947.984 [cm^-1]
  Total ZPE, Electronic energy at 0 [K]                               -552.98163846 [Eh]

  Thermal Energy, E (includes ZPE)
    Electronic E            0.000 [kcal/mol]        0.000 [kJ/mol]       0.00000000 [Eh]
    Translational E         0.889 [kcal/mol]        3.718 [kJ/mol]       0.00141628 [Eh]
    Rotational E            0.592 [kcal/mol]        2.479 [kJ/mol]       0.00094418 [Eh]
    Vibrational E           6.027 [kcal/mol]       25.218 [kJ/mol]       0.00960497 [Eh]
  Correction E              7.508 [kcal/mol]       31.415 [kJ/mol]       0.01196543 [Eh]
  Total E, Electronic energy at  298.15 [K]                           -552.97854869 [Eh]

  Enthalpy, H_trans = E_trans + k_B * T
    Electronic H            0.000 [kcal/mol]        0.000 [kJ/mol]       0.00000000 [Eh]
    Translational H         1.481 [kcal/mol]        6.197 [kJ/mol]       0.00236046 [Eh]
    Rotational H            0.592 [kcal/mol]        2.479 [kJ/mol]       0.00094418 [Eh]
    Vibrational H           6.027 [kcal/mol]       25.218 [kJ/mol]       0.00960497 [Eh]
  Correction H              8.101 [kcal/mol]       33.894 [kJ/mol]       0.01290962 [Eh]
  Total H, Enthalpy at  298.15 [K]                                    -552.97760451 [Eh]

  Gibbs free energy, G = H - T * S
    Electronic G            0.000 [kcal/mol]        0.000 [kJ/mol]       0.00000000 [Eh]
    Translational G        -9.921 [kcal/mol]      -41.509 [kJ/mol]      -0.01581013 [Eh]
    Rotational G           -4.120 [kcal/mol]      -17.236 [kJ/mol]      -0.00656501 [Eh]
    Vibrational G           5.358 [kcal/mol]       22.420 [kJ/mol]       0.00853930 [Eh]
  Correction G             -8.682 [kcal/mol]      -36.326 [kJ/mol]      -0.01383584 [Eh]
  Total G, Free enthalpy at  298.15 [K]                               -553.00434997 [Eh]

*** Psi4 exiting successfully. Buy a developer a beer!
