                               Psi4 1.3.2 release

  ==> Input File <==

--------------------------------------------------------------------------
memory 144 GB

molecule {
0 1
Cl 0.0000000000 0.0000000000 0.0000000000
F 0.0000000000 0.0000000000 1.6318233300
}

set dynamic_level 1
set basis aug-cc-pV(D+d)Z

optimize("wB97M-V")
frequencies("wB97M-V")
--------------------------------------------------------------------------

    Molecular point group: c2v
  Charge       = 0
  Multiplicity = 1
  Basis Set: AUG-CC-PV(D+D)Z
    Blend: AUG-CC-PV(D+D)Z
  Basis Set: (AUG-CC-PV(D+D)Z AUX)
    Blend: AUG-CC-PVDZ-JKFIT
  @DF-RKS Final Energy:  -559.93434062415815
    Total Energy =                       -559.9343406241581533
    Molecular point group: c2v
  Basis Set: AUG-CC-PV(D+D)Z
    Blend: AUG-CC-PV(D+D)Z
  Basis Set: (AUG-CC-PV(D+D)Z AUX)
    Blend: AUG-CC-PVDZ-JKFIT
  @DF-RKS Final Energy:  -559.93435338070105
    Total Energy =                       -559.9343533807010544
  Basis Set: AUG-CC-PV(D+D)Z
    Blend: AUG-CC-PV(D+D)Z
  Basis Set: (AUG-CC-PV(D+D)Z AUX)
    Blend: AUG-CC-PVDZ-JKFIT
  @DF-RKS Final Energy:  -559.93432717733208
    Total Energy =                       -559.9343271773321931
  Basis Set: AUG-CC-PV(D+D)Z
    Blend: AUG-CC-PV(D+D)Z
  Basis Set: (AUG-CC-PV(D+D)Z AUX)
    Blend: AUG-CC-PVDZ-JKFIT
  @DF-RKS Final Energy:  -559.93445819048065
    Total Energy =                       -559.9344581904805409
  @DF-RKS Final Energy:  -559.93446144745303
    Total Energy =                       -559.9344614474531454
  @DF-RKS Final Energy:  -559.93445427960853
    Total Energy =                       -559.9344542796085307
  @DF-RKS Final Energy:  -559.93446806357281
    Total Energy =                       -559.9344680635728082
  @DF-RKS Final Energy:  -559.93446787386517
    Total Energy =                       -559.9344678738651737
  @DF-RKS Final Energy:  -559.93446761241898
    Total Energy =                       -559.9344676124188709
  **** Optimization is complete! (in 3 steps) ****
    Final optimized geometry and variables:
  @DF-RKS Final Energy:  -559.93446806357315
    Total Energy =                       -559.9344680635731493
  @DF-RKS Final Energy:  -559.93446787386472
    Total Energy =                       -559.9344678738648327
  Basis Set: AUG-CC-PV(D+D)Z
    Blend: AUG-CC-PV(D+D)Z
  Basis Set: (AUG-CC-PV(D+D)Z AUX)
    Blend: AUG-CC-PVDZ-JKFIT
  @DF-RKS Final Energy:  -559.93446761241910
    Total Energy =                       -559.9344676124189846
  Basis Set: AUG-CC-PV(D+D)Z
    Blend: AUG-CC-PV(D+D)Z
  Basis Set: (AUG-CC-PV(D+D)Z AUX)
    Blend: AUG-CC-PVDZ-JKFIT
  @DF-RKS Final Energy:  -559.93446806357304
    Total Energy =                       -559.9344680635730356
  Multiplicity = 1
  Basis Set: AUG-CC-PV(D+D)Z
    Blend: AUG-CC-PV(D+D)Z
  Basis Set: (AUG-CC-PV(D+D)Z AUX)
    Blend: AUG-CC-PVDZ-JKFIT
  @DF-RKS Final Energy:  -559.93446787386517
    Total Energy =                       -559.9344678738651737
    Molecular point group: c2v

    Geometry (in Angstrom), charge = 0, multiplicity = 1:

       Center              X                  Y                   Z               Mass
    ------------   -----------------  -----------------  -----------------  -----------------
         CL           0.000000000000     0.000000000000    -0.579371100647    34.968852682000
         F            0.000000000000     0.000000000000     1.066402396728    18.998403162730

  Charge       = 0
  Multiplicity = 1
  Basis Set: AUG-CC-PV(D+D)Z
    Blend: AUG-CC-PV(D+D)Z
  Basis Set: (AUG-CC-PV(D+D)Z AUX)
    Blend: AUG-CC-PVDZ-JKFIT

    Orbital Energies [Eh]
    ---------------------

    Doubly Occupied:

       1A1  -101.978044     2A1   -24.990837     3A1    -9.735990
       4A1    -7.446714     1B2    -7.428960     1B1    -7.428960
       5A1    -1.382237     6A1    -0.966384     7A1    -0.643338
       2B1    -0.604416     2B2    -0.604416     3B1    -0.439596
       3B2    -0.439596

  @DF-RKS Final Energy:  -559.93446761241898

   => Energetics <=

    Nuclear Repulsion Energy =             49.1951737961861610
    One-Electron Energy =                -871.6204237851176231
    Two-Electron Energy =                 291.8828608726183234
    DFT Exchange-Correlation Energy =     -29.5019652825194534
    Empirical Dispersion Energy =           0.0000000000000000
    VV10 Nonlocal Energy =                  0.1098867864135631
    Total Energy =                       -559.9344676124190983

  Dipole Moment: [D]
     X:     0.0000      Y:     0.0000      Z:    -0.9470     Total:     0.9470

  Vibration                       6
  Freq [cm^-1]                 823.0317
  Irrep                           A1
  Reduced mass [u]             22.6381
  Force const [mDyne/A]         9.0349

  ==> Thermochemistry Components <==

  Entropy, S
    Electronic S            0.000 [cal/(mol K)]        0.000 [J/(mol K)]       0.00000000 [mEh/K] (multiplicity = 1)
    Translational S        37.879 [cal/(mol K)]      158.488 [J/(mol K)]       0.06036475 [mEh/K] (mol. weight = 53.9673 [u], P = 101325.00 [Pa])
    Rotational S           13.944 [cal/(mol K)]       58.341 [J/(mol K)]       0.02222079 [mEh/K] (symmetry no. = 1)
    Vibrational S           0.189 [cal/(mol K)]        0.792 [J/(mol K)]       0.00030177 [mEh/K]
  Total S                  52.013 [cal/(mol K)]      217.621 [J/(mol K)]       0.08288731 [mEh/K]
  Correction S              0.000 [cal/(mol K)]        0.000 [J/(mol K)]       0.00000000 [mEh/K]

  Constant volume heat capacity, Cv
    Electronic Cv           0.000 [cal/(mol K)]        0.000 [J/(mol K)]       0.00000000 [mEh/K]
    Translational Cv        2.981 [cal/(mol K)]       12.472 [J/(mol K)]       0.00475022 [mEh/K]
    Rotational Cv           1.987 [cal/(mol K)]        8.314 [J/(mol K)]       0.00316681 [mEh/K]
    Vibrational Cv          0.614 [cal/(mol K)]        2.567 [J/(mol K)]       0.00097771 [mEh/K]
  Total Cv                  5.582 [cal/(mol K)]       23.353 [J/(mol K)]       0.00889474 [mEh/K]
  Correction Cv             0.000 [cal/(mol K)]        0.000 [J/(mol K)]       0.00000000 [mEh/K]

  Constant pressure heat capacity, Cp
    Electronic Cp           0.000 [cal/(mol K)]        0.000 [J/(mol K)]       0.00000000 [mEh/K]
    Translational Cp        4.968 [cal/(mol K)]       20.786 [J/(mol K)]       0.00791703 [mEh/K]
    Rotational Cp           1.987 [cal/(mol K)]        8.314 [J/(mol K)]       0.00316681 [mEh/K]
    Vibrational Cp          0.614 [cal/(mol K)]        2.567 [J/(mol K)]       0.00097771 [mEh/K]
  Total Cp                  7.569 [cal/(mol K)]       31.668 [J/(mol K)]       0.01206155 [mEh/K]
  Correction Cp             0.000 [cal/(mol K)]        0.000 [J/(mol K)]       0.00000000 [mEh/K]

  ==> Thermochemistry Energy Analysis <==

  Raw electronic energy, E0
  Total E0, Electronic energy at well bottom at 0 [K]                 -559.93446806 [Eh]

  Zero-point energy, ZPE_vib = Sum_i nu_i / 2
    Electronic ZPE          0.000 [kcal/mol]        0.000 [kJ/mol]       0.00000000 [Eh]
    Translational ZPE       0.000 [kcal/mol]        0.000 [kJ/mol]       0.00000000 [Eh]
    Rotational ZPE          0.000 [kcal/mol]        0.000 [kJ/mol]       0.00000000 [Eh]
    Vibrational ZPE         1.177 [kcal/mol]        4.923 [kJ/mol]       0.00187500 [Eh]         411.516 [cm^-1]
  Correction ZPE            1.177 [kcal/mol]        4.923 [kJ/mol]       0.00187500 [Eh]         411.516 [cm^-1]
  Total ZPE, Electronic energy at 0 [K]                               -559.93259306 [Eh]

  Thermal Energy, E (includes ZPE)
    Electronic E            0.000 [kcal/mol]        0.000 [kJ/mol]       0.00000000 [Eh]
    Translational E         0.889 [kcal/mol]        3.718 [kJ/mol]       0.00141628 [Eh]
    Rotational E            0.592 [kcal/mol]        2.479 [kJ/mol]       0.00094418 [Eh]
    Vibrational E           1.222 [kcal/mol]        5.112 [kJ/mol]       0.00194702 [Eh]
  Correction E              2.703 [kcal/mol]       11.309 [kJ/mol]       0.00430748 [Eh]
  Total E, Electronic energy at  298.15 [K]                           -559.93016059 [Eh]

  Enthalpy, H_trans = E_trans + k_B * T
    Electronic H            0.000 [kcal/mol]        0.000 [kJ/mol]       0.00000000 [Eh]
    Translational H         1.481 [kcal/mol]        6.197 [kJ/mol]       0.00236046 [Eh]
    Rotational H            0.592 [kcal/mol]        2.479 [kJ/mol]       0.00094418 [Eh]
    Vibrational H           1.222 [kcal/mol]        5.112 [kJ/mol]       0.00194702 [Eh]
  Correction H              3.295 [kcal/mol]       13.788 [kJ/mol]       0.00525166 [Eh]
  Total H, Enthalpy at  298.15 [K]                                    -559.92921640 [Eh]

  Gibbs free energy, G = H - T * S
    Electronic G            0.000 [kcal/mol]        0.000 [kJ/mol]       0.00000000 [Eh]
    Translational G        -9.813 [kcal/mol]      -41.056 [kJ/mol]      -0.01563729 [Eh]
    Rotational G           -3.565 [kcal/mol]      -14.915 [kJ/mol]      -0.00568094 [Eh]
    Vibrational G           1.165 [kcal/mol]        4.876 [kJ/mol]       0.00185704 [Eh]
  Correction G            -12.212 [kcal/mol]      -51.095 [kJ/mol]      -0.01946119 [Eh]
  Total G, Free enthalpy at  298.15 [K]                               -559.95392925 [Eh]

*** Psi4 exiting successfully. Buy a developer a beer!
