                               Psi4 1.3.2 release

  ==> Input File <==

--------------------------------------------------------------------------
memory 144 GB

molecule {
0 1
C 0.0000000000 0.0000000000 0.0000000000
O 0.0000000000 0.0000000000 1.1626000000
O 0.0000000000 0.0000000000 -1.1626000000
}

set dynamic_level 1
set basis aug-cc-pV(D+d)Z

optimize("wB97M-V")
frequencies("wB97M-V")
--------------------------------------------------------------------------

    Molecular point group: d2h
  Charge       = 0
  Multiplicity = 1
  Basis Set: AUG-CC-PV(D+D)Z
    Blend: AUG-CC-PV(D+D)Z
  Basis Set: (AUG-CC-PV(D+D)Z AUX)
    Blend: AUG-CC-PVDZ-JKFIT
  @DF-RKS Final Energy:  -188.57037734347659
    Total Energy =                       -188.5703773434765935
    Molecular point group: d2h
  Basis Set: AUG-CC-PV(D+D)Z
    Blend: AUG-CC-PV(D+D)Z
  Basis Set: (AUG-CC-PV(D+D)Z AUX)
    Blend: AUG-CC-PVDZ-JKFIT
  @DF-RKS Final Energy:  -188.57036591947750
    Total Energy =                       -188.5703659194774957
  Basis Set: AUG-CC-PV(D+D)Z
    Blend: AUG-CC-PV(D+D)Z
  Basis Set: (AUG-CC-PV(D+D)Z AUX)
    Blend: AUG-CC-PVDZ-JKFIT
  @DF-RKS Final Energy:  -188.57038693960612
    Total Energy =                       -188.5703869396061236
  Basis Set: AUG-CC-PV(D+D)Z
    Blend: AUG-CC-PV(D+D)Z
  Basis Set: (AUG-CC-PV(D+D)Z AUX)
    Blend: AUG-CC-PVDZ-JKFIT
  @DF-RKS Final Energy:  -188.57040757647641
    Total Energy =                       -188.5704075764764127
  @DF-RKS Final Energy:  -188.57040582029262
    Total Energy =                       -188.5704058202926205
  @DF-RKS Final Energy:  -188.57040754265793
    Total Energy =                       -188.5704075426579038
  @DF-RKS Final Energy:  -188.57040778417118
    Total Energy =                       -188.5704077841711808
  @DF-RKS Final Energy:  -188.57040688167817
    Total Energy =                       -188.5704068816781671
  @DF-RKS Final Energy:  -188.57040689589047
    Total Energy =                       -188.5704068958904429
  **** Optimization is complete! (in 3 steps) ****
    Final optimized geometry and variables:
  @DF-RKS Final Energy:  -188.57040778444525
    Total Energy =                       -188.5704077844452513
  @DF-RKS Final Energy:  -188.57040688248614
    Total Energy =                       -188.5704068824861395
  @DF-RKS Final Energy:  -188.57040689593788
    Total Energy =                       -188.5704068959378787
  @DF-RKS Final Energy:  -188.57040778444505
    Total Energy =                       -188.5704077844450524
  @DF-RKS Final Energy:  -188.57040688248625
    Total Energy =                       -188.5704068824862532
  Basis Set: AUG-CC-PV(D+D)Z
    Blend: AUG-CC-PV(D+D)Z
  Basis Set: (AUG-CC-PV(D+D)Z AUX)
    Blend: AUG-CC-PVDZ-JKFIT
  @DF-RKS Final Energy:  -188.57040689593808
    Total Energy =                       -188.5704068959381061
  Basis Set: AUG-CC-PV(D+D)Z
    Blend: AUG-CC-PV(D+D)Z
  Basis Set: (AUG-CC-PV(D+D)Z AUX)
    Blend: AUG-CC-PVDZ-JKFIT
  @DF-RKS Final Energy:  -188.57040505577586
    Total Energy =                       -188.5704050557758364
  Multiplicity = 1
  Basis Set: AUG-CC-PV(D+D)Z
    Blend: AUG-CC-PV(D+D)Z
  Basis Set: (AUG-CC-PV(D+D)Z AUX)
    Blend: AUG-CC-PVDZ-JKFIT
  @DF-RKS Final Energy:  -188.57040756888892
    Total Energy =                       -188.5704075688889247
    Molecular point group: c2v

    Geometry (in Angstrom), charge = 0, multiplicity = 1:

       Center              X                  Y                   Z               Mass
    ------------   -----------------  -----------------  -----------------  -----------------
         C           -0.000651343880     0.000000000000     0.000000000000    12.000000000000
         O            0.000244331612     0.000000000000     1.165316950057    15.994914619570
         O            0.000244331612     0.000000000000    -1.165316950057    15.994914619570

  Charge       = 0
  Multiplicity = 1
  Basis Set: AUG-CC-PV(D+D)Z
    Blend: AUG-CC-PV(D+D)Z
  Basis Set: (AUG-CC-PV(D+D)Z AUX)
    Blend: AUG-CC-PVDZ-JKFIT

    Orbital Energies [Eh]
    ---------------------

    Doubly Occupied:

       1B2   -19.442727     1A1   -19.442724     2A1   -10.564984
       3A1    -1.302153     2B2    -1.259628     4A1    -0.689219
       3B2    -0.639953     5A1    -0.636504     1B1    -0.636504
       1A2    -0.480628     4B2    -0.480628

  @DF-RKS Final Energy:  -188.57040756923675

   => Energetics <=

    Nuclear Repulsion Energy =             58.1255322483374499
    One-Electron Energy =                -371.9776876161623704
    Two-Electron Energy =                 141.5505733588726116
    DFT Exchange-Correlation Energy =     -16.3605718429064737
    Empirical Dispersion Energy =           0.0000000000000000
    VV10 Nonlocal Energy =                  0.0917462826220395
    Total Energy =                       -188.5704075692367496

  Dipole Moment: [D]
     X:    -0.0023      Y:     0.0000      Z:     0.0000     Total:     0.0023

  Vibration                       6                   7                   8
  Freq [cm^-1]                 674.4951            675.0399           1375.6796
  Irrep                          B3u                 B2u                  Ag
  Reduced mass [u]             12.8774             12.8774             15.9949
  Force const [mDyne/A]         3.4517              3.4573             17.8347

  Vibration                       9
  Freq [cm^-1]                2401.7329
  Irrep                          B1u
  Reduced mass [u]             12.8774
  Force const [mDyne/A]        43.7650

  ==> Thermochemistry Components <==

  Entropy, S
    Electronic S            0.000 [cal/(mol K)]        0.000 [J/(mol K)]       0.00000000 [mEh/K] (multiplicity = 1)
    Translational S        37.270 [cal/(mol K)]      155.938 [J/(mol K)]       0.05939371 [mEh/K] (mol. weight = 43.9898 [u], P = 101325.00 [Pa])
    Rotational S           13.090 [cal/(mol K)]       54.769 [J/(mol K)]       0.02086059 [mEh/K] (symmetry no. = 2)
    Vibrational S           0.695 [cal/(mol K)]        2.908 [J/(mol K)]       0.00110752 [mEh/K]
  Total S                  51.055 [cal/(mol K)]      213.615 [J/(mol K)]       0.08136183 [mEh/K]
  Correction S              0.000 [cal/(mol K)]        0.000 [J/(mol K)]       0.00000000 [mEh/K]

  Constant volume heat capacity, Cv
    Electronic Cv           0.000 [cal/(mol K)]        0.000 [J/(mol K)]       0.00000000 [mEh/K]
    Translational Cv        2.981 [cal/(mol K)]       12.472 [J/(mol K)]       0.00475022 [mEh/K]
    Rotational Cv           1.987 [cal/(mol K)]        8.314 [J/(mol K)]       0.00316681 [mEh/K]
    Vibrational Cv          1.874 [cal/(mol K)]        7.841 [J/(mol K)]       0.00298642 [mEh/K]
  Total Cv                  6.842 [cal/(mol K)]       28.627 [J/(mol K)]       0.01090345 [mEh/K]
  Correction Cv             0.000 [cal/(mol K)]        0.000 [J/(mol K)]       0.00000000 [mEh/K]

  Constant pressure heat capacity, Cp
    Electronic Cp           0.000 [cal/(mol K)]        0.000 [J/(mol K)]       0.00000000 [mEh/K]
    Translational Cp        4.968 [cal/(mol K)]       20.786 [J/(mol K)]       0.00791703 [mEh/K]
    Rotational Cp           1.987 [cal/(mol K)]        8.314 [J/(mol K)]       0.00316681 [mEh/K]
    Vibrational Cp          1.874 [cal/(mol K)]        7.841 [J/(mol K)]       0.00298642 [mEh/K]
  Total Cp                  8.829 [cal/(mol K)]       36.941 [J/(mol K)]       0.01407026 [mEh/K]
  Correction Cp             0.000 [cal/(mol K)]        0.000 [J/(mol K)]       0.00000000 [mEh/K]

  ==> Thermochemistry Energy Analysis <==

  Raw electronic energy, E0
  Total E0, Electronic energy at well bottom at 0 [K]                 -188.57040778 [Eh]

  Zero-point energy, ZPE_vib = Sum_i nu_i / 2
    Electronic ZPE          0.000 [kcal/mol]        0.000 [kJ/mol]       0.00000000 [Eh]
    Translational ZPE       0.000 [kcal/mol]        0.000 [kJ/mol]       0.00000000 [Eh]
    Rotational ZPE          0.000 [kcal/mol]        0.000 [kJ/mol]       0.00000000 [Eh]
    Vibrational ZPE         7.329 [kcal/mol]       30.666 [kJ/mol]       0.01168005 [Eh]        2563.474 [cm^-1]
  Correction ZPE            7.329 [kcal/mol]       30.666 [kJ/mol]       0.01168005 [Eh]        2563.474 [cm^-1]
  Total ZPE, Electronic energy at 0 [K]                               -188.55872774 [Eh]

  Thermal Energy, E (includes ZPE)
    Electronic E            0.000 [kcal/mol]        0.000 [kJ/mol]       0.00000000 [Eh]
    Translational E         0.889 [kcal/mol]        3.718 [kJ/mol]       0.00141628 [Eh]
    Rotational E            0.592 [kcal/mol]        2.479 [kJ/mol]       0.00094418 [Eh]
    Vibrational E           7.489 [kcal/mol]       31.335 [kJ/mol]       0.01193480 [Eh]
  Correction E              8.970 [kcal/mol]       37.532 [kJ/mol]       0.01429526 [Eh]
  Total E, Electronic energy at  298.15 [K]                           -188.55611252 [Eh]

  Enthalpy, H_trans = E_trans + k_B * T
    Electronic H            0.000 [kcal/mol]        0.000 [kJ/mol]       0.00000000 [Eh]
    Translational H         1.481 [kcal/mol]        6.197 [kJ/mol]       0.00236046 [Eh]
    Rotational H            0.592 [kcal/mol]        2.479 [kJ/mol]       0.00094418 [Eh]
    Vibrational H           7.489 [kcal/mol]       31.335 [kJ/mol]       0.01193480 [Eh]
  Correction H              9.563 [kcal/mol]       40.011 [kJ/mol]       0.01523945 [Eh]
  Total H, Enthalpy at  298.15 [K]                                    -188.55516834 [Eh]

  Gibbs free energy, G = H - T * S
    Electronic G            0.000 [kcal/mol]        0.000 [kJ/mol]       0.00000000 [Eh]
    Translational G        -9.631 [kcal/mol]      -40.296 [kJ/mol]      -0.01534777 [Eh]
    Rotational G           -3.310 [kcal/mol]      -13.851 [kJ/mol]      -0.00527540 [Eh]
    Vibrational G           7.282 [kcal/mol]       30.468 [kJ/mol]       0.01160459 [Eh]
  Correction G             -5.659 [kcal/mol]      -23.678 [kJ/mol]      -0.00901858 [Eh]
  Total G, Free enthalpy at  298.15 [K]                               -188.57942637 [Eh]

*** Psi4 exiting successfully. Buy a developer a beer!
