                               Psi4 1.3.2 release

  ==> Input File <==

--------------------------------------------------------------------------
memory 144 GB

molecule {
0 1
C 0.0000000000 0.0000000000 0.0000000000
O 0.0000000000 0.0000000000 1.1314000000
}

set dynamic_level 1
set basis aug-cc-pV(D+d)Z

optimize("wB97M-V")
frequencies("wB97M-V")
--------------------------------------------------------------------------

    Molecular point group: c2v
  Charge       = 0
  Multiplicity = 1
  Basis Set: AUG-CC-PV(D+D)Z
    Blend: AUG-CC-PV(D+D)Z
  Basis Set: (AUG-CC-PV(D+D)Z AUX)
    Blend: AUG-CC-PVDZ-JKFIT
  @DF-RKS Final Energy:  -113.30816375821350
    Total Energy =                       -113.3081637582134960
    Molecular point group: c2v
  Basis Set: AUG-CC-PV(D+D)Z
    Blend: AUG-CC-PV(D+D)Z
  Basis Set: (AUG-CC-PV(D+D)Z AUX)
    Blend: AUG-CC-PVDZ-JKFIT
  @DF-RKS Final Energy:  -113.30816788638789
    Total Energy =                       -113.3081678863879063
  Basis Set: AUG-CC-PV(D+D)Z
    Blend: AUG-CC-PV(D+D)Z
  Basis Set: (AUG-CC-PV(D+D)Z AUX)
    Blend: AUG-CC-PVDZ-JKFIT
  @DF-RKS Final Energy:  -113.30815494298074
    Total Energy =                       -113.3081549429807495
  Basis Set: AUG-CC-PV(D+D)Z
    Blend: AUG-CC-PV(D+D)Z
  Basis Set: (AUG-CC-PV(D+D)Z AUX)
    Blend: AUG-CC-PVDZ-JKFIT
  @DF-RKS Final Energy:  -113.30816814773571
    Total Energy =                       -113.3081681477357137
  @DF-RKS Final Energy:  -113.30816671472925
    Total Energy =                       -113.3081667147292393
  @DF-RKS Final Energy:  -113.30816493138806
    Total Energy =                       -113.3081649313880490
  @DF-RKS Final Energy:  -113.30816823252567
    Total Energy =                       -113.3081682325256878
  @DF-RKS Final Energy:  -113.30816591520053
    Total Energy =                       -113.3081659152005471
  @DF-RKS Final Energy:  -113.30816590648040
    Total Energy =                       -113.3081659064803830
  **** Optimization is complete! (in 3 steps) ****
    Final optimized geometry and variables:
  @DF-RKS Final Energy:  -113.30816823252580
    Total Energy =                       -113.3081682325258015
  @DF-RKS Final Energy:  -113.30816591520045
    Total Energy =                       -113.3081659152004477
  Basis Set: AUG-CC-PV(D+D)Z
    Blend: AUG-CC-PV(D+D)Z
  Basis Set: (AUG-CC-PV(D+D)Z AUX)
    Blend: AUG-CC-PVDZ-JKFIT
  @DF-RKS Final Energy:  -113.30816590648040
    Total Energy =                       -113.3081659064803972
  Basis Set: AUG-CC-PV(D+D)Z
    Blend: AUG-CC-PV(D+D)Z
  Basis Set: (AUG-CC-PV(D+D)Z AUX)
    Blend: AUG-CC-PVDZ-JKFIT
  @DF-RKS Final Energy:  -113.30816823252587
    Total Energy =                       -113.3081682325258726
  Multiplicity = 1
  Basis Set: AUG-CC-PV(D+D)Z
    Blend: AUG-CC-PV(D+D)Z
  Basis Set: (AUG-CC-PV(D+D)Z AUX)
    Blend: AUG-CC-PVDZ-JKFIT
  @DF-RKS Final Energy:  -113.30816591520045
    Total Energy =                       -113.3081659152004477
    Molecular point group: c2v

    Geometry (in Angstrom), charge = 0, multiplicity = 1:

       Center              X                  Y                   Z               Mass
    ------------   -----------------  -----------------  -----------------  -----------------
         C            0.000000000000     0.000000000000    -0.646649167830    12.000000000000
         O            0.000000000000     0.000000000000     0.485141071304    15.994914619570

  Charge       = 0
  Multiplicity = 1
  Basis Set: AUG-CC-PV(D+D)Z
    Blend: AUG-CC-PV(D+D)Z
  Basis Set: (AUG-CC-PV(D+D)Z AUX)
    Blend: AUG-CC-PVDZ-JKFIT

    Orbital Energies [Eh]
    ---------------------

    Doubly Occupied:

       1A1   -19.464409     2A1   -10.482732     3A1    -1.301012
       4A1    -0.697382     1B2    -0.585891     1B1    -0.585891
       5A1    -0.488443

  @DF-RKS Final Energy:  -113.30816590648018

   => Energetics <=

    Nuclear Repulsion Energy =             22.4427683097854178
    One-Electron Energy =                -197.9945773882710967
    Two-Electron Energy =                  72.2158608568796296
    DFT Exchange-Correlation Energy =     -10.0313395260469669
    Empirical Dispersion Energy =           0.0000000000000000
    VV10 Nonlocal Energy =                  0.0591218411728381
    Total Energy =                       -113.3081659064801840

  Dipole Moment: [D]
     X:     0.0000      Y:     0.0000      Z:     0.0389     Total:     0.0389

  Vibration                       6
  Freq [cm^-1]                2215.3940
  Irrep                           A1
  Reduced mass [u]             13.4388
  Force const [mDyne/A]        38.8608

  ==> Thermochemistry Components <==

  Entropy, S
    Electronic S            0.000 [cal/(mol K)]        0.000 [J/(mol K)]       0.00000000 [mEh/K] (multiplicity = 1)
    Translational S        35.923 [cal/(mol K)]      150.302 [J/(mol K)]       0.05724692 [mEh/K] (mol. weight = 27.9949 [u], P = 101325.00 [Pa])
    Rotational S           11.294 [cal/(mol K)]       47.256 [J/(mol K)]       0.01799870 [mEh/K] (symmetry no. = 1)
    Vibrational S           0.001 [cal/(mol K)]        0.002 [J/(mol K)]       0.00000084 [mEh/K]
  Total S                  47.218 [cal/(mol K)]      197.560 [J/(mol K)]       0.07524646 [mEh/K]
  Correction S              0.000 [cal/(mol K)]        0.000 [J/(mol K)]       0.00000000 [mEh/K]

  Constant volume heat capacity, Cv
    Electronic Cv           0.000 [cal/(mol K)]        0.000 [J/(mol K)]       0.00000000 [mEh/K]
    Translational Cv        2.981 [cal/(mol K)]       12.472 [J/(mol K)]       0.00475022 [mEh/K]
    Rotational Cv           1.987 [cal/(mol K)]        8.314 [J/(mol K)]       0.00316681 [mEh/K]
    Vibrational Cv          0.005 [cal/(mol K)]        0.022 [J/(mol K)]       0.00000824 [mEh/K]
  Total Cv                  4.973 [cal/(mol K)]       20.808 [J/(mol K)]       0.00792526 [mEh/K]
  Correction Cv             0.000 [cal/(mol K)]        0.000 [J/(mol K)]       0.00000000 [mEh/K]

  Constant pressure heat capacity, Cp
    Electronic Cp           0.000 [cal/(mol K)]        0.000 [J/(mol K)]       0.00000000 [mEh/K]
    Translational Cp        4.968 [cal/(mol K)]       20.786 [J/(mol K)]       0.00791703 [mEh/K]
    Rotational Cp           1.987 [cal/(mol K)]        8.314 [J/(mol K)]       0.00316681 [mEh/K]
    Vibrational Cp          0.005 [cal/(mol K)]        0.022 [J/(mol K)]       0.00000824 [mEh/K]
  Total Cp                  6.960 [cal/(mol K)]       29.122 [J/(mol K)]       0.01109207 [mEh/K]
  Correction Cp             0.000 [cal/(mol K)]        0.000 [J/(mol K)]       0.00000000 [mEh/K]

  ==> Thermochemistry Energy Analysis <==

  Raw electronic energy, E0
  Total E0, Electronic energy at well bottom at 0 [K]                 -113.30816823 [Eh]

  Zero-point energy, ZPE_vib = Sum_i nu_i / 2
    Electronic ZPE          0.000 [kcal/mol]        0.000 [kJ/mol]       0.00000000 [Eh]
    Translational ZPE       0.000 [kcal/mol]        0.000 [kJ/mol]       0.00000000 [Eh]
    Rotational ZPE          0.000 [kcal/mol]        0.000 [kJ/mol]       0.00000000 [Eh]
    Vibrational ZPE         3.167 [kcal/mol]       13.251 [kJ/mol]       0.00504704 [Eh]        1107.697 [cm^-1]
  Correction ZPE            3.167 [kcal/mol]       13.251 [kJ/mol]       0.00504704 [Eh]        1107.697 [cm^-1]
  Total ZPE, Electronic energy at 0 [K]                               -113.30312119 [Eh]

  Thermal Energy, E (includes ZPE)
    Electronic E            0.000 [kcal/mol]        0.000 [kJ/mol]       0.00000000 [Eh]
    Translational E         0.889 [kcal/mol]        3.718 [kJ/mol]       0.00141628 [Eh]
    Rotational E            0.592 [kcal/mol]        2.479 [kJ/mol]       0.00094418 [Eh]
    Vibrational E           3.167 [kcal/mol]       13.252 [kJ/mol]       0.00504727 [Eh]
  Correction E              4.648 [kcal/mol]       19.449 [kJ/mol]       0.00740773 [Eh]
  Total E, Electronic energy at  298.15 [K]                           -113.30076050 [Eh]

  Enthalpy, H_trans = E_trans + k_B * T
    Electronic H            0.000 [kcal/mol]        0.000 [kJ/mol]       0.00000000 [Eh]
    Translational H         1.481 [kcal/mol]        6.197 [kJ/mol]       0.00236046 [Eh]
    Rotational H            0.592 [kcal/mol]        2.479 [kJ/mol]       0.00094418 [Eh]
    Vibrational H           3.167 [kcal/mol]       13.252 [kJ/mol]       0.00504727 [Eh]
  Correction H              5.241 [kcal/mol]       21.928 [kJ/mol]       0.00835191 [Eh]
  Total H, Enthalpy at  298.15 [K]                                    -113.29981632 [Eh]

  Gibbs free energy, G = H - T * S
    Electronic G            0.000 [kcal/mol]        0.000 [kJ/mol]       0.00000000 [Eh]
    Translational G        -9.229 [kcal/mol]      -38.615 [kJ/mol]      -0.01470771 [Eh]
    Rotational G           -2.775 [kcal/mol]      -11.610 [kJ/mol]      -0.00442213 [Eh]
    Vibrational G           3.167 [kcal/mol]       13.251 [kJ/mol]       0.00504702 [Eh]
  Correction G             -8.837 [kcal/mol]      -36.974 [kJ/mol]      -0.01408282 [Eh]
  Total G, Free enthalpy at  298.15 [K]                               -113.32225105 [Eh]

*** Psi4 exiting successfully. Buy a developer a beer!
