                               Psi4 1.3.2 release

  ==> Input File <==

--------------------------------------------------------------------------
memory 144 GB

molecule {
0 1
C 0.0000000000 0.0000000000 0.0000000000
S 0.0000000000 0.0000000000 1.5576337400
S 0.0000000000 0.0000000000 -1.5576337400
}

set dynamic_level 1
set basis aug-cc-pV(D+d)Z

optimize("wB97M-V")
frequencies("wB97M-V")
--------------------------------------------------------------------------

    Molecular point group: d2h
  Charge       = 0
  Multiplicity = 1
  Basis Set: AUG-CC-PV(D+D)Z
    Blend: AUG-CC-PV(D+D)Z
  Basis Set: (AUG-CC-PV(D+D)Z AUX)
    Blend: AUG-CC-PVDZ-JKFIT
  @DF-RKS Final Energy:  -834.45750726778181
    Total Energy =                       -834.4575072677818071
    Molecular point group: d2h
  Basis Set: AUG-CC-PV(D+D)Z
    Blend: AUG-CC-PV(D+D)Z
  Basis Set: (AUG-CC-PV(D+D)Z AUX)
    Blend: AUG-CC-PVDZ-JKFIT
  @DF-RKS Final Energy:  -834.45750783356198
    Total Energy =                       -834.4575078335619764
  Basis Set: AUG-CC-PV(D+D)Z
    Blend: AUG-CC-PV(D+D)Z
  Basis Set: (AUG-CC-PV(D+D)Z AUX)
    Blend: AUG-CC-PVDZ-JKFIT
  @DF-RKS Final Energy:  -834.45750623552851
    Total Energy =                       -834.4575062355283990
  Basis Set: AUG-CC-PV(D+D)Z
    Blend: AUG-CC-PV(D+D)Z
  Basis Set: (AUG-CC-PV(D+D)Z AUX)
    Blend: AUG-CC-PVDZ-JKFIT
  @DF-RKS Final Energy:  -834.45750797172627
    Total Energy =                       -834.4575079717262724
  @DF-RKS Final Energy:  -834.45750776889759
    Total Energy =                       -834.4575077688976990
  @DF-RKS Final Energy:  -834.45750771189944
    Total Energy =                       -834.4575077118994386
  **** Optimization is complete! (in 2 steps) ****
    Final optimized geometry and variables:
  @DF-RKS Final Energy:  -834.45750797172525
    Total Energy =                       -834.4575079717253629
  @DF-RKS Final Energy:  -834.45750776791647
    Total Energy =                       -834.4575077679164679
  @DF-RKS Final Energy:  -834.45750771189910
    Total Energy =                       -834.4575077118990976
  @DF-RKS Final Energy:  -834.45750797172548
    Total Energy =                       -834.4575079717253629
  @DF-RKS Final Energy:  -834.45750776791624
    Total Energy =                       -834.4575077679162405
  Basis Set: AUG-CC-PV(D+D)Z
    Blend: AUG-CC-PV(D+D)Z
  Basis Set: (AUG-CC-PV(D+D)Z AUX)
    Blend: AUG-CC-PVDZ-JKFIT
  @DF-RKS Final Energy:  -834.45750771189910
    Total Energy =                       -834.4575077118990976
  Basis Set: AUG-CC-PV(D+D)Z
    Blend: AUG-CC-PV(D+D)Z
  Basis Set: (AUG-CC-PV(D+D)Z AUX)
    Blend: AUG-CC-PVDZ-JKFIT
  @DF-RKS Final Energy:  -834.45750679683567
    Total Energy =                       -834.4575067968355597
  Multiplicity = 1
  Basis Set: AUG-CC-PV(D+D)Z
    Blend: AUG-CC-PV(D+D)Z
  Basis Set: (AUG-CC-PV(D+D)Z AUX)
    Blend: AUG-CC-PVDZ-JKFIT
  @DF-RKS Final Energy:  -834.45750788790770
    Total Energy =                       -834.4575078879076955
    Molecular point group: c2v

    Geometry (in Angstrom), charge = 0, multiplicity = 1:

       Center              X                  Y                   Z               Mass
    ------------   -----------------  -----------------  -----------------  -----------------
         C           -0.000700864006     0.000000000000     0.000000000000    12.000000000000
         S            0.000131526794     0.000000000000     1.557073661385    31.972071174400
         S            0.000131526794     0.000000000000    -1.557073661385    31.972071174400

  Charge       = 0
  Multiplicity = 1
  Basis Set: AUG-CC-PV(D+D)Z
    Blend: AUG-CC-PV(D+D)Z
  Basis Set: (AUG-CC-PV(D+D)Z AUX)
    Blend: AUG-CC-PVDZ-JKFIT

    Orbital Energies [Eh]
    ---------------------

    Doubly Occupied:

       1B2   -89.236847     1A1   -89.236845     2A1   -10.495111
       2B2    -8.158141     3A1    -8.158100     3B2    -6.067447
       4A1    -6.067447     1A2    -6.062516     4B2    -6.062516
       1B1    -6.062515     5A1    -6.062515     6A1    -0.989385
       5B2    -0.894394     7A1    -0.619186     6B2    -0.533967
       8A1    -0.497203     2B1    -0.497203     2A2    -0.360369
       7B2    -0.360369

  @DF-RKS Final Energy:  -834.45750789156341

   => Energetics <=

    Nuclear Repulsion Energy =            108.7531676219375072
    One-Electron Energy =               -1366.3911636507655203
    Two-Electron Energy =                 466.4539044857176577
    DFT Exchange-Correlation Energy =     -43.4304480827078976
    Empirical Dispersion Energy =           0.0000000000000000
    VV10 Nonlocal Energy =                  0.1570317342547856
    Total Energy =                       -834.4575078915634094

  Dipole Moment: [D]
     X:     0.0007      Y:     0.0000      Z:     0.0000     Total:     0.0007

  Vibration                       6                   7                   8
  Freq [cm^-1]                 411.6553            420.9372            700.0397
  Irrep                          B3u                 B2u                  Ag
  Reduced mass [u]             13.3142             13.3142             31.9721
  Force const [mDyne/A]         1.3293              1.3900              9.2314

  Vibration                       9
  Freq [cm^-1]                1575.9696
  Irrep                          B1u
  Reduced mass [u]             13.3142
  Force const [mDyne/A]        19.4832

  ==> Thermochemistry Components <==

  Entropy, S
    Electronic S            0.000 [cal/(mol K)]        0.000 [J/(mol K)]       0.00000000 [mEh/K] (multiplicity = 1)
    Translational S        38.898 [cal/(mol K)]      162.748 [J/(mol K)]       0.06198752 [mEh/K] (mol. weight = 75.9441 [u], P = 101325.00 [Pa])
    Rotational S           15.618 [cal/(mol K)]       65.347 [J/(mol K)]       0.02488948 [mEh/K] (symmetry no. = 2)
    Vibrational S           2.124 [cal/(mol K)]        8.887 [J/(mol K)]       0.00338501 [mEh/K]
  Total S                  56.640 [cal/(mol K)]      236.983 [J/(mol K)]       0.09026201 [mEh/K]
  Correction S              0.000 [cal/(mol K)]        0.000 [J/(mol K)]       0.00000000 [mEh/K]

  Constant volume heat capacity, Cv
    Electronic Cv           0.000 [cal/(mol K)]        0.000 [J/(mol K)]       0.00000000 [mEh/K]
    Translational Cv        2.981 [cal/(mol K)]       12.472 [J/(mol K)]       0.00475022 [mEh/K]
    Rotational Cv           1.987 [cal/(mol K)]        8.314 [J/(mol K)]       0.00316681 [mEh/K]
    Vibrational Cv          3.756 [cal/(mol K)]       15.715 [J/(mol K)]       0.00598569 [mEh/K]
  Total Cv                  8.724 [cal/(mol K)]       36.502 [J/(mol K)]       0.01390272 [mEh/K]
  Correction Cv             0.000 [cal/(mol K)]        0.000 [J/(mol K)]       0.00000000 [mEh/K]

  Constant pressure heat capacity, Cp
    Electronic Cp           0.000 [cal/(mol K)]        0.000 [J/(mol K)]       0.00000000 [mEh/K]
    Translational Cp        4.968 [cal/(mol K)]       20.786 [J/(mol K)]       0.00791703 [mEh/K]
    Rotational Cp           1.987 [cal/(mol K)]        8.314 [J/(mol K)]       0.00316681 [mEh/K]
    Vibrational Cp          3.756 [cal/(mol K)]       15.715 [J/(mol K)]       0.00598569 [mEh/K]
  Total Cp                 10.711 [cal/(mol K)]       44.816 [J/(mol K)]       0.01706953 [mEh/K]
  Correction Cp             0.000 [cal/(mol K)]        0.000 [J/(mol K)]       0.00000000 [mEh/K]

  ==> Thermochemistry Energy Analysis <==

  Raw electronic energy, E0
  Total E0, Electronic energy at well bottom at 0 [K]                 -834.45750797 [Eh]

  Zero-point energy, ZPE_vib = Sum_i nu_i / 2
    Electronic ZPE          0.000 [kcal/mol]        0.000 [kJ/mol]       0.00000000 [Eh]
    Translational ZPE       0.000 [kcal/mol]        0.000 [kJ/mol]       0.00000000 [Eh]
    Rotational ZPE          0.000 [kcal/mol]        0.000 [kJ/mol]       0.00000000 [Eh]
    Vibrational ZPE         4.444 [kcal/mol]       18.594 [kJ/mol]       0.00708192 [Eh]        1554.301 [cm^-1]
  Correction ZPE            4.444 [kcal/mol]       18.594 [kJ/mol]       0.00708192 [Eh]        1554.301 [cm^-1]
  Total ZPE, Electronic energy at 0 [K]                               -834.45042606 [Eh]

  Thermal Energy, E (includes ZPE)
    Electronic E            0.000 [kcal/mol]        0.000 [kJ/mol]       0.00000000 [Eh]
    Translational E         0.889 [kcal/mol]        3.718 [kJ/mol]       0.00141628 [Eh]
    Rotational E            0.592 [kcal/mol]        2.479 [kJ/mol]       0.00094418 [Eh]
    Vibrational E           4.886 [kcal/mol]       20.442 [kJ/mol]       0.00778586 [Eh]
  Correction E              6.367 [kcal/mol]       26.639 [kJ/mol]       0.01014632 [Eh]
  Total E, Electronic energy at  298.15 [K]                           -834.44736165 [Eh]

  Enthalpy, H_trans = E_trans + k_B * T
    Electronic H            0.000 [kcal/mol]        0.000 [kJ/mol]       0.00000000 [Eh]
    Translational H         1.481 [kcal/mol]        6.197 [kJ/mol]       0.00236046 [Eh]
    Rotational H            0.592 [kcal/mol]        2.479 [kJ/mol]       0.00094418 [Eh]
    Vibrational H           4.886 [kcal/mol]       20.442 [kJ/mol]       0.00778586 [Eh]
  Correction H              6.959 [kcal/mol]       29.118 [kJ/mol]       0.01109051 [Eh]
  Total H, Enthalpy at  298.15 [K]                                    -834.44641746 [Eh]

  Gibbs free energy, G = H - T * S
    Electronic G            0.000 [kcal/mol]        0.000 [kJ/mol]       0.00000000 [Eh]
    Translational G       -10.116 [kcal/mol]      -42.326 [kJ/mol]      -0.01612112 [Eh]
    Rotational G           -4.064 [kcal/mol]      -17.004 [kJ/mol]      -0.00647661 [Eh]
    Vibrational G           4.252 [kcal/mol]       17.792 [kJ/mol]       0.00677662 [Eh]
  Correction G             -9.928 [kcal/mol]      -41.538 [kJ/mol]      -0.01582111 [Eh]
  Total G, Free enthalpy at  298.15 [K]                               -834.47332908 [Eh]

*** Psi4 exiting successfully. Buy a developer a beer!
