                               Psi4 1.3.2 release

  ==> Input File <==

--------------------------------------------------------------------------
memory 144 GB

molecule {
0 1
C 0.0000000000 0.0000000000 0.0000000000
S 0.0000000000 0.0000000000 1.5415329200
}

set dynamic_level 1
set basis aug-cc-pV(D+d)Z

optimize("wB97M-V")
frequencies("wB97M-V")
--------------------------------------------------------------------------

    Molecular point group: c2v
  Charge       = 0
  Multiplicity = 1
  Basis Set: AUG-CC-PV(D+D)Z
    Blend: AUG-CC-PV(D+D)Z
  Basis Set: (AUG-CC-PV(D+D)Z AUX)
    Blend: AUG-CC-PVDZ-JKFIT
  @DF-RKS Final Energy:  -436.19985172397799
    Total Energy =                       -436.1998517239780426
    Molecular point group: c2v
  Basis Set: AUG-CC-PV(D+D)Z
    Blend: AUG-CC-PV(D+D)Z
  Basis Set: (AUG-CC-PV(D+D)Z AUX)
    Blend: AUG-CC-PVDZ-JKFIT
  @DF-RKS Final Energy:  -436.19983634141545
    Total Energy =                       -436.1998363414154483
  Basis Set: AUG-CC-PV(D+D)Z
    Blend: AUG-CC-PV(D+D)Z
  Basis Set: (AUG-CC-PV(D+D)Z AUX)
    Blend: AUG-CC-PVDZ-JKFIT
  @DF-RKS Final Energy:  -436.19986543911398
    Total Energy =                       -436.1998654391139212
  Basis Set: AUG-CC-PV(D+D)Z
    Blend: AUG-CC-PV(D+D)Z
  Basis Set: (AUG-CC-PV(D+D)Z AUX)
    Blend: AUG-CC-PVDZ-JKFIT
  @DF-RKS Final Energy:  -436.19991398011075
    Total Energy =                       -436.1999139801106935
  @DF-RKS Final Energy:  -436.19991195067848
    Total Energy =                       -436.1999119506784837
  @DF-RKS Final Energy:  -436.19991427939931
    Total Energy =                       -436.1999142793993087
  @DF-RKS Final Energy:  -436.19991437231891
    Total Energy =                       -436.1999143723189718
  @DF-RKS Final Energy:  -436.19991352955941
    Total Energy =                       -436.1999135295594101
  @DF-RKS Final Energy:  -436.19991347976350
    Total Energy =                       -436.1999134797634383
  **** Optimization is complete! (in 3 steps) ****
    Final optimized geometry and variables:
  @DF-RKS Final Energy:  -436.19991437231920
    Total Energy =                       -436.1999143723191423
  @DF-RKS Final Energy:  -436.19991352955947
    Total Energy =                       -436.1999135295594670
  Basis Set: AUG-CC-PV(D+D)Z
    Blend: AUG-CC-PV(D+D)Z
  Basis Set: (AUG-CC-PV(D+D)Z AUX)
    Blend: AUG-CC-PVDZ-JKFIT
  @DF-RKS Final Energy:  -436.19991347962861
    Total Energy =                       -436.1999134796285489
  Basis Set: AUG-CC-PV(D+D)Z
    Blend: AUG-CC-PV(D+D)Z
  Basis Set: (AUG-CC-PV(D+D)Z AUX)
    Blend: AUG-CC-PVDZ-JKFIT
  @DF-RKS Final Energy:  -436.19991437231897
    Total Energy =                       -436.1999143723189718
  Multiplicity = 1
  Basis Set: AUG-CC-PV(D+D)Z
    Blend: AUG-CC-PV(D+D)Z
  Basis Set: (AUG-CC-PV(D+D)Z AUX)
    Blend: AUG-CC-PVDZ-JKFIT
  @DF-RKS Final Energy:  -436.19991352955913
    Total Energy =                       -436.1999135295591259
    Molecular point group: c2v

    Geometry (in Angstrom), charge = 0, multiplicity = 1:

       Center              X                  Y                   Z               Mass
    ------------   -----------------  -----------------  -----------------  -----------------
         C            0.000000000000     0.000000000000    -1.114617054239    12.000000000000
         S            0.000000000000     0.000000000000     0.418346518057    31.972071174400

  Charge       = 0
  Multiplicity = 1
  Basis Set: AUG-CC-PV(D+D)Z
    Blend: AUG-CC-PV(D+D)Z
  Basis Set: (AUG-CC-PV(D+D)Z AUX)
    Blend: AUG-CC-PVDZ-JKFIT

    Orbital Energies [Eh]
    ---------------------

    Doubly Occupied:

       1A1   -89.252088     2A1   -10.463005     3A1    -8.176926
       4A1    -6.082896     1B2    -6.082661     1B1    -6.082661
       5A1    -0.962879     6A1    -0.633267     2B2    -0.452706
       2B1    -0.452706     7A1    -0.416397

  @DF-RKS Final Energy:  -436.19991347962809

   => Energetics <=

    Nuclear Repulsion Energy =             33.1390863699599194
    One-Electron Energy =                -665.8099101900929782
    Two-Electron Energy =                 219.9366909580446645
    DFT Exchange-Correlation Energy =     -23.5578282949991511
    Empirical Dispersion Energy =           0.0000000000000000
    VV10 Nonlocal Energy =                  0.0920476774594665
    Total Energy =                       -436.1999134796280373

  Dipole Moment: [D]
     X:     0.0000      Y:     0.0000      Z:     1.9412     Total:     1.9412

  Vibration                       6
  Freq [cm^-1]                1354.3796
  Irrep                           A1
  Reduced mass [u]             14.4661
  Force const [mDyne/A]        15.6344

  ==> Thermochemistry Components <==

  Entropy, S
    Electronic S            0.000 [cal/(mol K)]        0.000 [J/(mol K)]       0.00000000 [mEh/K] (multiplicity = 1)
    Translational S        37.269 [cal/(mol K)]      155.933 [J/(mol K)]       0.05939180 [mEh/K] (mol. weight = 43.9721 [u], P = 101325.00 [Pa])
    Rotational S           12.978 [cal/(mol K)]       54.300 [J/(mol K)]       0.02068177 [mEh/K] (symmetry no. = 1)
    Vibrational S           0.022 [cal/(mol K)]        0.091 [J/(mol K)]       0.00003466 [mEh/K]
  Total S                  50.269 [cal/(mol K)]      210.324 [J/(mol K)]       0.08010823 [mEh/K]
  Correction S              0.000 [cal/(mol K)]        0.000 [J/(mol K)]       0.00000000 [mEh/K]

  Constant volume heat capacity, Cv
    Electronic Cv           0.000 [cal/(mol K)]        0.000 [J/(mol K)]       0.00000000 [mEh/K]
    Translational Cv        2.981 [cal/(mol K)]       12.472 [J/(mol K)]       0.00475022 [mEh/K]
    Rotational Cv           1.987 [cal/(mol K)]        8.314 [J/(mol K)]       0.00316681 [mEh/K]
    Vibrational Cv          0.123 [cal/(mol K)]        0.517 [J/(mol K)]       0.00019680 [mEh/K]
  Total Cv                  5.092 [cal/(mol K)]       21.303 [J/(mol K)]       0.00811382 [mEh/K]
  Correction Cv             0.000 [cal/(mol K)]        0.000 [J/(mol K)]       0.00000000 [mEh/K]

  Constant pressure heat capacity, Cp
    Electronic Cp           0.000 [cal/(mol K)]        0.000 [J/(mol K)]       0.00000000 [mEh/K]
    Translational Cp        4.968 [cal/(mol K)]       20.786 [J/(mol K)]       0.00791703 [mEh/K]
    Rotational Cp           1.987 [cal/(mol K)]        8.314 [J/(mol K)]       0.00316681 [mEh/K]
    Vibrational Cp          0.123 [cal/(mol K)]        0.517 [J/(mol K)]       0.00019680 [mEh/K]
  Total Cp                  7.079 [cal/(mol K)]       29.617 [J/(mol K)]       0.01128063 [mEh/K]
  Correction Cp             0.000 [cal/(mol K)]        0.000 [J/(mol K)]       0.00000000 [mEh/K]

  ==> Thermochemistry Energy Analysis <==

  Raw electronic energy, E0
  Total E0, Electronic energy at well bottom at 0 [K]                 -436.19991437 [Eh]

  Zero-point energy, ZPE_vib = Sum_i nu_i / 2
    Electronic ZPE          0.000 [kcal/mol]        0.000 [kJ/mol]       0.00000000 [Eh]
    Translational ZPE       0.000 [kcal/mol]        0.000 [kJ/mol]       0.00000000 [Eh]
    Rotational ZPE          0.000 [kcal/mol]        0.000 [kJ/mol]       0.00000000 [Eh]
    Vibrational ZPE         1.936 [kcal/mol]        8.101 [kJ/mol]       0.00308550 [Eh]         677.190 [cm^-1]
  Correction ZPE            1.936 [kcal/mol]        8.101 [kJ/mol]       0.00308550 [Eh]         677.190 [cm^-1]
  Total ZPE, Electronic energy at 0 [K]                               -436.19682887 [Eh]

  Thermal Energy, E (includes ZPE)
    Electronic E            0.000 [kcal/mol]        0.000 [kJ/mol]       0.00000000 [Eh]
    Translational E         0.889 [kcal/mol]        3.718 [kJ/mol]       0.00141628 [Eh]
    Rotational E            0.592 [kcal/mol]        2.479 [kJ/mol]       0.00094418 [Eh]
    Vibrational E           1.942 [kcal/mol]        8.125 [kJ/mol]       0.00309447 [Eh]
  Correction E              3.423 [kcal/mol]       14.322 [kJ/mol]       0.00545493 [Eh]
  Total E, Electronic energy at  298.15 [K]                           -436.19445944 [Eh]

  Enthalpy, H_trans = E_trans + k_B * T
    Electronic H            0.000 [kcal/mol]        0.000 [kJ/mol]       0.00000000 [Eh]
    Translational H         1.481 [kcal/mol]        6.197 [kJ/mol]       0.00236046 [Eh]
    Rotational H            0.592 [kcal/mol]        2.479 [kJ/mol]       0.00094418 [Eh]
    Vibrational H           1.942 [kcal/mol]        8.125 [kJ/mol]       0.00309447 [Eh]
  Correction H              4.016 [kcal/mol]       16.801 [kJ/mol]       0.00639911 [Eh]
  Total H, Enthalpy at  298.15 [K]                                    -436.19351526 [Eh]

  Gibbs free energy, G = H - T * S
    Electronic G            0.000 [kcal/mol]        0.000 [kJ/mol]       0.00000000 [Eh]
    Translational G        -9.631 [kcal/mol]      -40.294 [kJ/mol]      -0.01534720 [Eh]
    Rotational G           -3.277 [kcal/mol]      -13.711 [kJ/mol]      -0.00522208 [Eh]
    Vibrational G           1.935 [kcal/mol]        8.097 [kJ/mol]       0.00308413 [Eh]
  Correction G            -10.972 [kcal/mol]      -45.907 [kJ/mol]      -0.01748515 [Eh]
  Total G, Free enthalpy at  298.15 [K]                               -436.21739953 [Eh]

*** Psi4 exiting successfully. Buy a developer a beer!
