                               Psi4 1.3.2 release

  ==> Input File <==

--------------------------------------------------------------------------
memory 144 GB

molecule {
0 1
F 0.0000000000 0.0000000000 0.0000000000
F 0.0000000000 0.0000000000 1.4129000000
}

set dynamic_level 1
set basis aug-cc-pV(D+d)Z

optimize("wB97M-V")
frequencies("wB97M-V")
--------------------------------------------------------------------------

    Molecular point group: d2h
  Charge       = 0
  Multiplicity = 1
  Basis Set: AUG-CC-PV(D+D)Z
    Blend: AUG-CC-PV(D+D)Z
  Basis Set: (AUG-CC-PV(D+D)Z AUX)
    Blend: AUG-CC-PVDZ-JKFIT
  @DF-RKS Final Energy:  -199.48731457227433
    Total Energy =                       -199.4873145722743573
    Molecular point group: d2h
  Basis Set: AUG-CC-PV(D+D)Z
    Blend: AUG-CC-PV(D+D)Z
  Basis Set: (AUG-CC-PV(D+D)Z AUX)
    Blend: AUG-CC-PVDZ-JKFIT
  @DF-RKS Final Energy:  -199.48728671525481
    Total Energy =                       -199.4872867152547542
  Basis Set: AUG-CC-PV(D+D)Z
    Blend: AUG-CC-PV(D+D)Z
  Basis Set: (AUG-CC-PV(D+D)Z AUX)
    Blend: AUG-CC-PVDZ-JKFIT
  @DF-RKS Final Energy:  -199.48734148526060
    Total Energy =                       -199.4873414852606004
  Basis Set: AUG-CC-PV(D+D)Z
    Blend: AUG-CC-PV(D+D)Z
  Basis Set: (AUG-CC-PV(D+D)Z AUX)
    Blend: AUG-CC-PVDZ-JKFIT
  @DF-RKS Final Energy:  -199.48768789820528
    Total Energy =                       -199.4876878982052233
  @DF-RKS Final Energy:  -199.48768394785918
    Total Energy =                       -199.4876839478591819
  @DF-RKS Final Energy:  -199.48769078070779
    Total Energy =                       -199.4876907807077941
  @DF-RKS Final Energy:  -199.48769330938714
    Total Energy =                       -199.4876933093871116
  @DF-RKS Final Energy:  -199.48769301202259
    Total Energy =                       -199.4876930120225609
  @DF-RKS Final Energy:  -199.48769251981827
    Total Energy =                       -199.4876925198182676
  **** Optimization is complete! (in 3 steps) ****
    Final optimized geometry and variables:
  @DF-RKS Final Energy:  -199.48769330938717
    Total Energy =                       -199.4876933093871401
  @DF-RKS Final Energy:  -199.48769301202236
    Total Energy =                       -199.4876930120223619
  Basis Set: AUG-CC-PV(D+D)Z
    Blend: AUG-CC-PV(D+D)Z
  Basis Set: (AUG-CC-PV(D+D)Z AUX)
    Blend: AUG-CC-PVDZ-JKFIT
  @DF-RKS Final Energy:  -199.48769251981821
    Total Energy =                       -199.4876925198181539
  Basis Set: AUG-CC-PV(D+D)Z
    Blend: AUG-CC-PV(D+D)Z
  Basis Set: (AUG-CC-PV(D+D)Z AUX)
    Blend: AUG-CC-PVDZ-JKFIT
  @DF-RKS Final Energy:  -199.48769330938711
    Total Energy =                       -199.4876933093870832
  Multiplicity = 1
  Basis Set: AUG-CC-PV(D+D)Z
    Blend: AUG-CC-PV(D+D)Z
  Basis Set: (AUG-CC-PV(D+D)Z AUX)
    Blend: AUG-CC-PVDZ-JKFIT
  @DF-RKS Final Energy:  -199.48769301202256
    Total Energy =                       -199.4876930120225609
    Molecular point group: d2h

    Geometry (in Angstrom), charge = 0, multiplicity = 1:

       Center              X                  Y                   Z               Mass
    ------------   -----------------  -----------------  -----------------  -----------------
         F            0.000000000000     0.000000000000    -0.694320137920    18.998403162730
         F            0.000000000000     0.000000000000     0.694320137920    18.998403162730

  Charge       = 0
  Multiplicity = 1
  Basis Set: AUG-CC-PV(D+D)Z
    Blend: AUG-CC-PV(D+D)Z
  Basis Set: (AUG-CC-PV(D+D)Z AUX)
    Blend: AUG-CC-PVDZ-JKFIT

    Orbital Energies [Eh]
    ---------------------

    Doubly Occupied:

       1B1u  -25.045108     1Ag   -25.045076     2Ag    -1.507072
       2B1u   -1.251366     3Ag    -0.720175     1B3u   -0.667984
       1B2u   -0.667984     1B2g   -0.528577     1B3g   -0.528577

  @DF-RKS Final Energy:  -199.48769251981835

   => Energetics <=

    Nuclear Repulsion Energy =             30.8671401874249440
    One-Electron Energy =                -339.1840952360349775
    Two-Electron Energy =                 124.0575371135406613
    DFT Exchange-Correlation Energy =     -15.3052779314185994
    Empirical Dispersion Energy =           0.0000000000000000
    VV10 Nonlocal Energy =                  0.0770033466696530
    Total Energy =                       -199.4876925198183528

  Dipole Moment: [D]
     X:     0.0000      Y:     0.0000      Z:     0.0000     Total:     0.0000

  Vibration                       6
  Freq [cm^-1]                1071.8542
  Irrep                           Ag
  Reduced mass [u]             18.9984
  Force const [mDyne/A]        12.8599

  ==> Thermochemistry Components <==

  Entropy, S
    Electronic S            0.000 [cal/(mol K)]        0.000 [J/(mol K)]       0.00000000 [mEh/K] (multiplicity = 1)
    Translational S        36.834 [cal/(mol K)]      154.112 [J/(mol K)]       0.05869802 [mEh/K] (mol. weight = 37.9968 [u], P = 101325.00 [Pa])
    Rotational S           11.377 [cal/(mol K)]       47.600 [J/(mol K)]       0.01812982 [mEh/K] (symmetry no. = 2)
    Vibrational S           0.070 [cal/(mol K)]        0.293 [J/(mol K)]       0.00011143 [mEh/K]
  Total S                  48.280 [cal/(mol K)]      202.004 [J/(mol K)]       0.07693926 [mEh/K]
  Correction S              0.000 [cal/(mol K)]        0.000 [J/(mol K)]       0.00000000 [mEh/K]

  Constant volume heat capacity, Cv
    Electronic Cv           0.000 [cal/(mol K)]        0.000 [J/(mol K)]       0.00000000 [mEh/K]
    Translational Cv        2.981 [cal/(mol K)]       12.472 [J/(mol K)]       0.00475022 [mEh/K]
    Rotational Cv           1.987 [cal/(mol K)]        8.314 [J/(mol K)]       0.00316681 [mEh/K]
    Vibrational Cv          0.305 [cal/(mol K)]        1.276 [J/(mol K)]       0.00048595 [mEh/K]
  Total Cv                  5.273 [cal/(mol K)]       22.062 [J/(mol K)]       0.00840298 [mEh/K]
  Correction Cv             0.000 [cal/(mol K)]        0.000 [J/(mol K)]       0.00000000 [mEh/K]

  Constant pressure heat capacity, Cp
    Electronic Cp           0.000 [cal/(mol K)]        0.000 [J/(mol K)]       0.00000000 [mEh/K]
    Translational Cp        4.968 [cal/(mol K)]       20.786 [J/(mol K)]       0.00791703 [mEh/K]
    Rotational Cp           1.987 [cal/(mol K)]        8.314 [J/(mol K)]       0.00316681 [mEh/K]
    Vibrational Cp          0.305 [cal/(mol K)]        1.276 [J/(mol K)]       0.00048595 [mEh/K]
  Total Cp                  7.260 [cal/(mol K)]       30.376 [J/(mol K)]       0.01156979 [mEh/K]
  Correction Cp             0.000 [cal/(mol K)]        0.000 [J/(mol K)]       0.00000000 [mEh/K]

  ==> Thermochemistry Energy Analysis <==

  Raw electronic energy, E0
  Total E0, Electronic energy at well bottom at 0 [K]                 -199.48769331 [Eh]

  Zero-point energy, ZPE_vib = Sum_i nu_i / 2
    Electronic ZPE          0.000 [kcal/mol]        0.000 [kJ/mol]       0.00000000 [Eh]
    Translational ZPE       0.000 [kcal/mol]        0.000 [kJ/mol]       0.00000000 [Eh]
    Rotational ZPE          0.000 [kcal/mol]        0.000 [kJ/mol]       0.00000000 [Eh]
    Vibrational ZPE         1.532 [kcal/mol]        6.411 [kJ/mol]       0.00244186 [Eh]         535.927 [cm^-1]
  Correction ZPE            1.532 [kcal/mol]        6.411 [kJ/mol]       0.00244186 [Eh]         535.927 [cm^-1]
  Total ZPE, Electronic energy at 0 [K]                               -199.48525145 [Eh]

  Thermal Energy, E (includes ZPE)
    Electronic E            0.000 [kcal/mol]        0.000 [kJ/mol]       0.00000000 [Eh]
    Translational E         0.889 [kcal/mol]        3.718 [kJ/mol]       0.00141628 [Eh]
    Rotational E            0.592 [kcal/mol]        2.479 [kJ/mol]       0.00094418 [Eh]
    Vibrational E           1.550 [kcal/mol]        6.484 [kJ/mol]       0.00246972 [Eh]
  Correction E              3.031 [kcal/mol]       12.682 [kJ/mol]       0.00483018 [Eh]
  Total E, Electronic energy at  298.15 [K]                           -199.48286313 [Eh]

  Enthalpy, H_trans = E_trans + k_B * T
    Electronic H            0.000 [kcal/mol]        0.000 [kJ/mol]       0.00000000 [Eh]
    Translational H         1.481 [kcal/mol]        6.197 [kJ/mol]       0.00236046 [Eh]
    Rotational H            0.592 [kcal/mol]        2.479 [kJ/mol]       0.00094418 [Eh]
    Vibrational H           1.550 [kcal/mol]        6.484 [kJ/mol]       0.00246972 [Eh]
  Correction H              3.623 [kcal/mol]       15.161 [kJ/mol]       0.00577436 [Eh]
  Total H, Enthalpy at  298.15 [K]                                    -199.48191895 [Eh]

  Gibbs free energy, G = H - T * S
    Electronic G            0.000 [kcal/mol]        0.000 [kJ/mol]       0.00000000 [Eh]
    Translational G        -9.501 [kcal/mol]      -39.751 [kJ/mol]      -0.01514035 [Eh]
    Rotational G           -2.799 [kcal/mol]      -11.713 [kJ/mol]      -0.00446122 [Eh]
    Vibrational G           1.529 [kcal/mol]        6.397 [kJ/mol]       0.00243649 [Eh]
  Correction G            -10.771 [kcal/mol]      -45.067 [kJ/mol]      -0.01716508 [Eh]
  Total G, Free enthalpy at  298.15 [K]                               -199.50485839 [Eh]

*** Psi4 exiting successfully. Buy a developer a beer!
