                               Psi4 1.3.2 release

  ==> Input File <==

--------------------------------------------------------------------------
memory 144 GB

molecule {
0 1
O 0.0000000000 0.0000000000 0.0000000000
C 0.0000000000 0.0000000000 1.2066000000
H 0.9369544103 0.0000000000 1.7870836544
H -0.9369544103 0.0000000000 1.7870836544
}

set dynamic_level 1
set basis aug-cc-pV(D+d)Z

optimize("wB97M-V")
frequencies("wB97M-V")
--------------------------------------------------------------------------

    Molecular point group: c2v
  Charge       = 0
  Multiplicity = 1
  Basis Set: AUG-CC-PV(D+D)Z
    Blend: AUG-CC-PV(D+D)Z
  Basis Set: (AUG-CC-PV(D+D)Z AUX)
    Blend: AUG-CC-PVDZ-JKFIT
  @DF-RKS Final Energy:  -114.47548353163064
    Total Energy =                       -114.4754835316306441
    Molecular point group: c2v
  Basis Set: AUG-CC-PV(D+D)Z
    Blend: AUG-CC-PV(D+D)Z
  Basis Set: (AUG-CC-PV(D+D)Z AUX)
    Blend: AUG-CC-PVDZ-JKFIT
  @DF-RKS Final Energy:  -114.47547973489417
    Total Energy =                       -114.4754797348941651
  Basis Set: AUG-CC-PV(D+D)Z
    Blend: AUG-CC-PV(D+D)Z
  Basis Set: (AUG-CC-PV(D+D)Z AUX)
    Blend: AUG-CC-PVDZ-JKFIT
  @DF-RKS Final Energy:  -114.47548434448233
    Total Energy =                       -114.4754843444823251
  Basis Set: AUG-CC-PV(D+D)Z
    Blend: AUG-CC-PV(D+D)Z
  Basis Set: (AUG-CC-PV(D+D)Z AUX)
    Blend: AUG-CC-PVDZ-JKFIT
  @DF-RKS Final Energy:  -114.47550028814588
    Total Energy =                       -114.4755002881458807
  @DF-RKS Final Energy:  -114.47546272962867
    Total Energy =                       -114.4754627296286742
  @DF-RKS Final Energy:  -114.47544458870095
    Total Energy =                       -114.4754445887009524
  @DF-RKS Final Energy:  -114.47551565578139
    Total Energy =                       -114.4755156557813933
  @DF-RKS Final Energy:  -114.47558127035151
    Total Energy =                       -114.4755812703515119
  @DF-RKS Final Energy:  -114.47557792274853
    Total Energy =                       -114.4755779227485277
  @DF-RKS Final Energy:  -114.47558162599543
    Total Energy =                       -114.4755816259954173
  @DF-RKS Final Energy:  -114.47558088437863
    Total Energy =                       -114.4755808843786440
  @DF-RKS Final Energy:  -114.47557772317361
    Total Energy =                       -114.4755777231736147
  @DF-RKS Final Energy:  -114.47557749040180
    Total Energy =                       -114.4755774904018182
  @DF-RKS Final Energy:  -114.47557853473950
    Total Energy =                       -114.4755785347394834
  @DF-RKS Final Energy:  -114.47558203949959
    Total Energy =                       -114.4755820394995851
  @DF-RKS Final Energy:  -114.47558024038572
    Total Energy =                       -114.4755802403857388
  @DF-RKS Final Energy:  -114.47558083963175
    Total Energy =                       -114.4755808396317605
  @DF-RKS Final Energy:  -114.47558056526489
    Total Energy =                       -114.4755805652648917
  @DF-RKS Final Energy:  -114.47557958402173
    Total Energy =                       -114.4755795840217303
  @DF-RKS Final Energy:  -114.47557888245723
    Total Energy =                       -114.4755788824572278
  **** Optimization is complete! (in 3 steps) ****
    Final optimized geometry and variables:
  @DF-RKS Final Energy:  -114.47557888245719
    Total Energy =                       -114.4755788824571852
  @DF-RKS Final Energy:  -114.47557869360668
    Total Energy =                       -114.4755786936066642
  @DF-RKS Final Energy:  -114.47558203949951
    Total Energy =                       -114.4755820394994998
  @DF-RKS Final Energy:  -114.47558024038582
    Total Energy =                       -114.4755802403858240
  @DF-RKS Final Energy:  -114.47558083963160
    Total Energy =                       -114.4755808396316041
  @DF-RKS Final Energy:  -114.47558056526489
    Total Energy =                       -114.4755805652648917
  @DF-RKS Final Energy:  -114.47557958402177
    Total Energy =                       -114.4755795840217871
  @DF-RKS Final Energy:  -114.47557888245724
    Total Energy =                       -114.4755788824572420
  @DF-RKS Final Energy:  -114.47557869360675
    Total Energy =                       -114.4755786936067494
  @DF-RKS Final Energy:  -114.47557870354763
    Total Energy =                       -114.4755787035476260
  @DF-RKS Final Energy:  -114.47557908403226
    Total Energy =                       -114.4755790840322618
  @DF-RKS Final Energy:  -114.47557770342787
    Total Energy =                       -114.4755777034278594
  @DF-RKS Final Energy:  -114.47557728912443
    Total Energy =                       -114.4755772891244305
  @DF-RKS Final Energy:  -114.47557881550630
    Total Energy =                       -114.4755788155062959
  @DF-RKS Final Energy:  -114.47558000193261
    Total Energy =                       -114.4755800019326131
  @DF-RKS Final Energy:  -114.47558130390833
    Total Energy =                       -114.4755813039082994
  Basis Set: AUG-CC-PV(D+D)Z
    Blend: AUG-CC-PV(D+D)Z
  Basis Set: (AUG-CC-PV(D+D)Z AUX)
    Blend: AUG-CC-PVDZ-JKFIT
  @DF-RKS Final Energy:  -114.47557776755706
    Total Energy =                       -114.4755777675570556
  Basis Set: AUG-CC-PV(D+D)Z
    Blend: AUG-CC-PV(D+D)Z
  Basis Set: (AUG-CC-PV(D+D)Z AUX)
    Blend: AUG-CC-PVDZ-JKFIT
  @DF-RKS Final Energy:  -114.47557705910886
    Total Energy =                       -114.4755770591088577
  Multiplicity = 1
  Basis Set: AUG-CC-PV(D+D)Z
    Blend: AUG-CC-PV(D+D)Z
  Basis Set: (AUG-CC-PV(D+D)Z AUX)
    Blend: AUG-CC-PVDZ-JKFIT
  @DF-RKS Final Energy:  -114.47557705914421
    Total Energy =                       -114.4755770591442001
    Molecular point group: cs

    Geometry (in Angstrom), charge = 0, multiplicity = 1:

       Center              X                  Y                   Z               Mass
    ------------   -----------------  -----------------  -----------------  -----------------
         O            0.000000000000    -0.000096017363    -0.602102948767    15.994914619570
         C            0.000000000000     0.000392624603     0.603296060516    12.000000000000
         H            0.946054758958    -0.001575524326     1.186233946895     1.007825032230
         H           -0.946054758958    -0.001575524326     1.186233946895     1.007825032230

  Charge       = 0
  Multiplicity = 1
  Basis Set: AUG-CC-PV(D+D)Z
    Blend: AUG-CC-PV(D+D)Z
  Basis Set: (AUG-CC-PV(D+D)Z AUX)
    Blend: AUG-CC-PVDZ-JKFIT

    Orbital Energies [Eh]
    ---------------------

    Doubly Occupied:

       1Ap   -19.379011     2Ap   -10.464018     3Ap    -1.199989
       4Ap    -0.755172     1App   -0.609641     5Ap    -0.568074
       6Ap    -0.511889     2App   -0.377412

  @DF-RKS Final Energy:  -114.47558136222712

   => Energetics <=

    Nuclear Repulsion Energy =             31.2513974770911673
    One-Electron Energy =                -217.1975899308717146
    Two-Electron Energy =                  81.8597110055322474
    DFT Exchange-Correlation Energy =     -10.4556047198203181
    Empirical Dispersion Energy =           0.0000000000000000
    VV10 Nonlocal Energy =                  0.0665048058415016
    Total Energy =                       -114.4755813622271177

  Dipole Moment: [D]
     X:     0.0000      Y:    -0.0010      Z:     2.4494     Total:     2.4494

  Vibration                       7                   8                   9
  Freq [cm^-1]                1196.5503           1246.9589           1509.8227
  Irrep                           B2                  B1                  A1
  Reduced mass [u]              1.3652              1.3433              1.0887
  Force const [mDyne/A]         1.1516              1.2306              1.4623

  Vibration                       10                  11                  12
  Freq [cm^-1]                1830.6619           2926.7958           3005.1394
  Irrep                           A1                  A1                  B1
  Reduced mass [u]              8.1893              1.0456              1.1204
  Force const [mDyne/A]        16.1701              5.2769              5.9613

  ==> Thermochemistry Components <==

  Entropy, S
    Electronic S            0.000 [cal/(mol K)]        0.000 [J/(mol K)]       0.00000000 [mEh/K] (multiplicity = 1)
    Translational S        36.130 [cal/(mol K)]      151.169 [J/(mol K)]       0.05757719 [mEh/K] (mol. weight = 30.0106 [u], P = 101325.00 [Pa])
    Rotational S           16.032 [cal/(mol K)]       67.080 [J/(mol K)]       0.02554932 [mEh/K] (symmetry no. = 2)
    Vibrational S           0.090 [cal/(mol K)]        0.377 [J/(mol K)]       0.00014368 [mEh/K]
  Total S                  52.253 [cal/(mol K)]      218.626 [J/(mol K)]       0.08327019 [mEh/K]
  Correction S              0.000 [cal/(mol K)]        0.000 [J/(mol K)]       0.00000000 [mEh/K]

  Constant volume heat capacity, Cv
    Electronic Cv           0.000 [cal/(mol K)]        0.000 [J/(mol K)]       0.00000000 [mEh/K]
    Translational Cv        2.981 [cal/(mol K)]       12.472 [J/(mol K)]       0.00475022 [mEh/K]
    Rotational Cv           2.981 [cal/(mol K)]       12.472 [J/(mol K)]       0.00475022 [mEh/K]
    Vibrational Cv          0.479 [cal/(mol K)]        2.003 [J/(mol K)]       0.00076291 [mEh/K]
  Total Cv                  6.440 [cal/(mol K)]       26.946 [J/(mol K)]       0.01026334 [mEh/K]
  Correction Cv             0.000 [cal/(mol K)]        0.000 [J/(mol K)]       0.00000000 [mEh/K]

  Constant pressure heat capacity, Cp
    Electronic Cp           0.000 [cal/(mol K)]        0.000 [J/(mol K)]       0.00000000 [mEh/K]
    Translational Cp        4.968 [cal/(mol K)]       20.786 [J/(mol K)]       0.00791703 [mEh/K]
    Rotational Cp           2.981 [cal/(mol K)]       12.472 [J/(mol K)]       0.00475022 [mEh/K]
    Vibrational Cp          0.479 [cal/(mol K)]        2.003 [J/(mol K)]       0.00076291 [mEh/K]
  Total Cp                  8.428 [cal/(mol K)]       35.261 [J/(mol K)]       0.01343015 [mEh/K]
  Correction Cp             0.000 [cal/(mol K)]        0.000 [J/(mol K)]       0.00000000 [mEh/K]

  ==> Thermochemistry Energy Analysis <==

  Raw electronic energy, E0
  Total E0, Electronic energy at well bottom at 0 [K]                 -114.47558204 [Eh]

  Zero-point energy, ZPE_vib = Sum_i nu_i / 2
    Electronic ZPE          0.000 [kcal/mol]        0.000 [kJ/mol]       0.00000000 [Eh]
    Translational ZPE       0.000 [kcal/mol]        0.000 [kJ/mol]       0.00000000 [Eh]
    Rotational ZPE          0.000 [kcal/mol]        0.000 [kJ/mol]       0.00000000 [Eh]
    Vibrational ZPE        16.749 [kcal/mol]       70.077 [kJ/mol]       0.02669085 [Eh]        5857.964 [cm^-1]
  Correction ZPE           16.749 [kcal/mol]       70.077 [kJ/mol]       0.02669085 [Eh]        5857.964 [cm^-1]
  Total ZPE, Electronic energy at 0 [K]                               -114.44889119 [Eh]

  Thermal Energy, E (includes ZPE)
    Electronic E            0.000 [kcal/mol]        0.000 [kJ/mol]       0.00000000 [Eh]
    Translational E         0.889 [kcal/mol]        3.718 [kJ/mol]       0.00141628 [Eh]
    Rotational E            0.889 [kcal/mol]        3.718 [kJ/mol]       0.00141628 [Eh]
    Vibrational E          16.772 [kcal/mol]       70.173 [kJ/mol]       0.02672766 [Eh]
  Correction E             18.549 [kcal/mol]       77.610 [kJ/mol]       0.02956022 [Eh]
  Total E, Electronic energy at  298.15 [K]                           -114.44602182 [Eh]

  Enthalpy, H_trans = E_trans + k_B * T
    Electronic H            0.000 [kcal/mol]        0.000 [kJ/mol]       0.00000000 [Eh]
    Translational H         1.481 [kcal/mol]        6.197 [kJ/mol]       0.00236046 [Eh]
    Rotational H            0.889 [kcal/mol]        3.718 [kJ/mol]       0.00141628 [Eh]
    Vibrational H          16.772 [kcal/mol]       70.173 [kJ/mol]       0.02672766 [Eh]
  Correction H             19.142 [kcal/mol]       80.089 [kJ/mol]       0.03050440 [Eh]
  Total H, Enthalpy at  298.15 [K]                                    -114.44507764 [Eh]

  Gibbs free energy, G = H - T * S
    Electronic G            0.000 [kcal/mol]        0.000 [kJ/mol]       0.00000000 [Eh]
    Translational G        -9.291 [kcal/mol]      -38.874 [kJ/mol]      -0.01480618 [Eh]
    Rotational G           -3.891 [kcal/mol]      -16.281 [kJ/mol]      -0.00620125 [Eh]
    Vibrational G          16.745 [kcal/mol]       70.061 [kJ/mol]       0.02668482 [Eh]
  Correction G              3.563 [kcal/mol]       14.906 [kJ/mol]       0.00567739 [Eh]
  Total G, Free enthalpy at  298.15 [K]                               -114.46990465 [Eh]

*** Psi4 exiting successfully. Buy a developer a beer!
