                               Psi4 1.3.2 release

  ==> Input File <==

--------------------------------------------------------------------------
memory 144 GB

molecule {
0 1
S 0.0000000000 0.0000000000 0.0000000000
C 0.0000000000 0.0000000000 1.2066000000
H 0.9369544103 0.0000000000 1.7870836544
H -0.9369544103 0.0000000000 1.7870836544
}

set dynamic_level 1
set basis aug-cc-pV(D+d)Z

optimize("wB97M-V")
frequencies("wB97M-V")
--------------------------------------------------------------------------

    Molecular point group: c2v
  Charge       = 0
  Multiplicity = 1
  Basis Set: AUG-CC-PV(D+D)Z
    Blend: AUG-CC-PV(D+D)Z
  Basis Set: (AUG-CC-PV(D+D)Z AUX)
    Blend: AUG-CC-PVDZ-JKFIT
  @DF-RKS Final Energy:  -437.14109168558343
    Total Energy =                       -437.1410916855834898
    Molecular point group: c2v
  Basis Set: AUG-CC-PV(D+D)Z
    Blend: AUG-CC-PV(D+D)Z
  Basis Set: (AUG-CC-PV(D+D)Z AUX)
    Blend: AUG-CC-PVDZ-JKFIT
  @DF-RKS Final Energy:  -437.14282024008992
    Total Energy =                       -437.1428202400898044
  Basis Set: AUG-CC-PV(D+D)Z
    Blend: AUG-CC-PV(D+D)Z
  Basis Set: (AUG-CC-PV(D+D)Z AUX)
    Blend: AUG-CC-PVDZ-JKFIT
  @DF-RKS Final Energy:  -437.13935510897966
    Total Energy =                       -437.1393551089797143
  Basis Set: AUG-CC-PV(D+D)Z
    Blend: AUG-CC-PV(D+D)Z
  Basis Set: (AUG-CC-PV(D+D)Z AUX)
    Blend: AUG-CC-PVDZ-JKFIT
  @DF-RKS Final Energy:  -437.14067385851035
    Total Energy =                       -437.1406738585103540
  @DF-RKS Final Energy:  -437.14150467865517
    Total Energy =                       -437.1415046786551102
  @DF-RKS Final Energy:  -437.14111091408267
    Total Energy =                       -437.1411109140826170
  @DF-RKS Final Energy:  -437.14106618356271
    Total Energy =                       -437.1410661835627138
  @DF-RKS Final Energy:  -437.33395011215157
    Total Energy =                       -437.3339501121516264
  @DF-RKS Final Energy:  -437.33471842484153
    Total Energy =                       -437.3347184248415260
  @DF-RKS Final Energy:  -437.33317744096900
    Total Energy =                       -437.3331774409689388
  @DF-RKS Final Energy:  -437.33372236012474
    Total Energy =                       -437.3337223601248525
  @DF-RKS Final Energy:  -437.33417342496040
    Total Energy =                       -437.3341734249603974
  @DF-RKS Final Energy:  -437.33397883697671
    Total Energy =                       -437.3339788369767689
  @DF-RKS Final Energy:  -437.33391514124753
    Total Energy =                       -437.3339151412475871
  @DF-RKS Final Energy:  -437.40066417618237
    Total Energy =                       -437.4006641761823175
  @DF-RKS Final Energy:  -437.40100991213990
    Total Energy =                       -437.4010099121398980
  @DF-RKS Final Energy:  -437.40031577505863
    Total Energy =                       -437.4003157750586865
  @DF-RKS Final Energy:  -437.40054414885645
    Total Energy =                       -437.4005441488565111
  @DF-RKS Final Energy:  -437.40077989944626
    Total Energy =                       -437.4007798994462632
  @DF-RKS Final Energy:  -437.40066842826536
    Total Energy =                       -437.4006684282653055
  **** Optimization is complete! (in 9 steps) ****
    Final optimized geometry and variables:
  @DF-RKS Final Energy:  -437.42924854835474
    Total Energy =                       -437.4292485483547921
  @DF-RKS Final Energy:  -437.42924853994600
    Total Energy =                       -437.4292485399460588
  @DF-RKS Final Energy:  -437.42925208130606
    Total Energy =                       -437.4292520813060605
  @DF-RKS Final Energy:  -437.42925149938100
    Total Energy =                       -437.4292514993809959
  @DF-RKS Final Energy:  -437.42925143839688
    Total Energy =                       -437.4292514383968751
  @DF-RKS Final Energy:  -437.42925008613844
    Total Energy =                       -437.4292500861384951
  @DF-RKS Final Energy:  -437.42925004965053
    Total Energy =                       -437.4292500496504772
  @DF-RKS Final Energy:  -437.42924854835513
    Total Energy =                       -437.4292485483550763
  @DF-RKS Final Energy:  -437.42924853994600
    Total Energy =                       -437.4292485399460020
  @DF-RKS Final Energy:  -437.42924958026276
    Total Energy =                       -437.4292495802627627
  @DF-RKS Final Energy:  -437.42924967846483
    Total Energy =                       -437.4292496784647710
  @DF-RKS Final Energy:  -437.42924787266787
    Total Energy =                       -437.4292478726678723
  @DF-RKS Final Energy:  -437.42924794134120
    Total Energy =                       -437.4292479413411456
  @DF-RKS Final Energy:  -437.42924964010649
    Total Energy =                       -437.4292496401064341
  @DF-RKS Final Energy:  -437.42924970332524
    Total Energy =                       -437.4292497033252403
  @DF-RKS Final Energy:  -437.42925160557439
    Total Energy =                       -437.4292516055743363
  Basis Set: AUG-CC-PV(D+D)Z
    Blend: AUG-CC-PV(D+D)Z
  Basis Set: (AUG-CC-PV(D+D)Z AUX)
    Blend: AUG-CC-PVDZ-JKFIT
  @DF-RKS Final Energy:  -437.42924727550849
    Total Energy =                       -437.4292472755084304
  Basis Set: AUG-CC-PV(D+D)Z
    Blend: AUG-CC-PV(D+D)Z
  Basis Set: (AUG-CC-PV(D+D)Z AUX)
    Blend: AUG-CC-PVDZ-JKFIT
  @DF-RKS Final Energy:  -437.42924684237187
    Total Energy =                       -437.4292468423719242
  Multiplicity = 1
  Basis Set: AUG-CC-PV(D+D)Z
    Blend: AUG-CC-PV(D+D)Z
  Basis Set: (AUG-CC-PV(D+D)Z AUX)
    Blend: AUG-CC-PVDZ-JKFIT
  @DF-RKS Final Energy:  -437.42924684183708
    Total Energy =                       -437.4292468418371413
    Molecular point group: cs

    Geometry (in Angstrom), charge = 0, multiplicity = 1:

       Center              X                  Y                   Z               Mass
    ------------   -----------------  -----------------  -----------------  -----------------
         S            0.000000000000    -0.000036888405    -0.514783763342    31.972071174400
         C            0.000000000000     0.000370835607     1.091031581526    12.000000000000
         H            0.930010983958    -0.001622617247     1.670093535602     1.007825032230
         H           -0.930010983958    -0.001622617247     1.670093535602     1.007825032230

  Charge       = 0
  Multiplicity = 1
  Basis Set: AUG-CC-PV(D+D)Z
    Blend: AUG-CC-PV(D+D)Z
  Basis Set: (AUG-CC-PV(D+D)Z AUX)
    Blend: AUG-CC-PVDZ-JKFIT

    Orbital Energies [Eh]
    ---------------------

    Doubly Occupied:

       1Ap   -89.206357     2Ap   -10.433766     3Ap    -8.126885
       4Ap    -6.036636     5Ap    -6.035161     1App   -6.027170
       6Ap    -0.926648     7Ap    -0.717088     2App   -0.571546
       8Ap    -0.499272     9Ap    -0.419286     3App   -0.328819

  @DF-RKS Final Energy:  -437.42925156254915

   => Energetics <=

    Nuclear Repulsion Energy =             44.8476620662461585
    One-Electron Energy =                -690.9061079820718305
    Two-Electron Energy =                 232.5263654997026208
    DFT Exchange-Correlation Energy =     -23.9964230935406349
    Empirical Dispersion Energy =           0.0000000000000000
    VV10 Nonlocal Energy =                  0.0992519471145532
    Total Energy =                       -437.4292515625491546

  Dipole Moment: [D]
     X:     0.0000      Y:    -0.0027      Z:     1.7674     Total:     1.7674

  Vibration                       7                   8                   9
  Freq [cm^-1]                1002.7279           1047.2038           1127.2462
  Irrep                           B1                  B2                  A1
  Reduced mass [u]              1.2074              1.2953              4.0192
  Force const [mDyne/A]         0.7153              0.8369              3.0090

  Vibration                       10                  11                  12
  Freq [cm^-1]                1482.9274           3091.6982           3187.4008
  Irrep                           A1                  A1                  B1
  Reduced mass [u]              1.2313              1.0514              1.1199
  Force const [mDyne/A]         1.5953              5.9212              6.7035

  ==> Thermochemistry Components <==

  Entropy, S
    Electronic S            0.000 [cal/(mol K)]        0.000 [J/(mol K)]       0.00000000 [mEh/K] (multiplicity = 1)
    Translational S        37.403 [cal/(mol K)]      156.492 [J/(mol K)]       0.05960470 [mEh/K] (mol. weight = 45.9877 [u], P = 101325.00 [Pa])
    Rotational S           17.480 [cal/(mol K)]       73.135 [J/(mol K)]       0.02785554 [mEh/K] (symmetry no. = 2)
    Vibrational S           0.238 [cal/(mol K)]        0.997 [J/(mol K)]       0.00037967 [mEh/K]
  Total S                  55.120 [cal/(mol K)]      230.624 [J/(mol K)]       0.08783991 [mEh/K]
  Correction S              0.000 [cal/(mol K)]        0.000 [J/(mol K)]       0.00000000 [mEh/K]

  Constant volume heat capacity, Cv
    Electronic Cv           0.000 [cal/(mol K)]        0.000 [J/(mol K)]       0.00000000 [mEh/K]
    Translational Cv        2.981 [cal/(mol K)]       12.472 [J/(mol K)]       0.00475022 [mEh/K]
    Rotational Cv           2.981 [cal/(mol K)]       12.472 [J/(mol K)]       0.00475022 [mEh/K]
    Vibrational Cv          1.040 [cal/(mol K)]        4.350 [J/(mol K)]       0.00165699 [mEh/K]
  Total Cv                  7.001 [cal/(mol K)]       29.294 [J/(mol K)]       0.01115742 [mEh/K]
  Correction Cv             0.000 [cal/(mol K)]        0.000 [J/(mol K)]       0.00000000 [mEh/K]

  Constant pressure heat capacity, Cp
    Electronic Cp           0.000 [cal/(mol K)]        0.000 [J/(mol K)]       0.00000000 [mEh/K]
    Translational Cp        4.968 [cal/(mol K)]       20.786 [J/(mol K)]       0.00791703 [mEh/K]
    Rotational Cp           2.981 [cal/(mol K)]       12.472 [J/(mol K)]       0.00475022 [mEh/K]
    Vibrational Cp          1.040 [cal/(mol K)]        4.350 [J/(mol K)]       0.00165699 [mEh/K]
  Total Cp                  8.989 [cal/(mol K)]       37.608 [J/(mol K)]       0.01432423 [mEh/K]
  Correction Cp             0.000 [cal/(mol K)]        0.000 [J/(mol K)]       0.00000000 [mEh/K]

  ==> Thermochemistry Energy Analysis <==

  Raw electronic energy, E0
  Total E0, Electronic energy at well bottom at 0 [K]                 -437.42925208 [Eh]

  Zero-point energy, ZPE_vib = Sum_i nu_i / 2
    Electronic ZPE          0.000 [kcal/mol]        0.000 [kJ/mol]       0.00000000 [Eh]
    Translational ZPE       0.000 [kcal/mol]        0.000 [kJ/mol]       0.00000000 [Eh]
    Rotational ZPE          0.000 [kcal/mol]        0.000 [kJ/mol]       0.00000000 [Eh]
    Vibrational ZPE        15.638 [kcal/mol]       65.431 [kJ/mol]       0.02492134 [Eh]        5469.602 [cm^-1]
  Correction ZPE           15.638 [kcal/mol]       65.431 [kJ/mol]       0.02492134 [Eh]        5469.602 [cm^-1]
  Total ZPE, Electronic energy at 0 [K]                               -437.40433074 [Eh]

  Thermal Energy, E (includes ZPE)
    Electronic E            0.000 [kcal/mol]        0.000 [kJ/mol]       0.00000000 [Eh]
    Translational E         0.889 [kcal/mol]        3.718 [kJ/mol]       0.00141628 [Eh]
    Rotational E            0.889 [kcal/mol]        3.718 [kJ/mol]       0.00141628 [Eh]
    Vibrational E          15.698 [kcal/mol]       65.680 [kJ/mol]       0.02501614 [Eh]
  Correction E             17.475 [kcal/mol]       73.117 [kJ/mol]       0.02784870 [Eh]
  Total E, Electronic energy at  298.15 [K]                           -437.40140339 [Eh]

  Enthalpy, H_trans = E_trans + k_B * T
    Electronic H            0.000 [kcal/mol]        0.000 [kJ/mol]       0.00000000 [Eh]
    Translational H         1.481 [kcal/mol]        6.197 [kJ/mol]       0.00236046 [Eh]
    Rotational H            0.889 [kcal/mol]        3.718 [kJ/mol]       0.00141628 [Eh]
    Vibrational H          15.698 [kcal/mol]       65.680 [kJ/mol]       0.02501614 [Eh]
  Correction H             18.068 [kcal/mol]       75.596 [kJ/mol]       0.02879288 [Eh]
  Total H, Enthalpy at  298.15 [K]                                    -437.40045920 [Eh]

  Gibbs free energy, G = H - T * S
    Electronic G            0.000 [kcal/mol]        0.000 [kJ/mol]       0.00000000 [Eh]
    Translational G        -9.670 [kcal/mol]      -40.461 [kJ/mol]      -0.01541068 [Eh]
    Rotational G           -4.323 [kcal/mol]      -18.087 [kJ/mol]      -0.00688885 [Eh]
    Vibrational G          15.627 [kcal/mol]       65.383 [kJ/mol]       0.02490294 [Eh]
  Correction G              1.634 [kcal/mol]        6.835 [kJ/mol]       0.00260341 [Eh]
  Total G, Free enthalpy at  298.15 [K]                               -437.42664867 [Eh]

*** Psi4 exiting successfully. Buy a developer a beer!
