                               Psi4 1.3.2 release

  ==> Input File <==

--------------------------------------------------------------------------
memory 144 GB

molecule {
0 1
O 0.0000000000 0.0000000000 0.0000000000
H 0.0000000000 0.0000000000 0.9579000000
H 0.9289588892 0.0000000000 -0.2336831018
}

set dynamic_level 1
set basis aug-cc-pV(D+d)Z

optimize("wB97M-V")
frequencies("wB97M-V")
--------------------------------------------------------------------------

    Molecular point group: c2v
  Charge       = 0
  Multiplicity = 1
  Basis Set: AUG-CC-PV(D+D)Z
    Blend: AUG-CC-PV(D+D)Z
  Basis Set: (AUG-CC-PV(D+D)Z AUX)
    Blend: AUG-CC-PVDZ-JKFIT
  @DF-RKS Final Energy:   -76.41275694319111
    Total Energy =                        -76.4127569431911127
    Molecular point group: c2v
  Basis Set: AUG-CC-PV(D+D)Z
    Blend: AUG-CC-PV(D+D)Z
  Basis Set: (AUG-CC-PV(D+D)Z AUX)
    Blend: AUG-CC-PVDZ-JKFIT
  @DF-RKS Final Energy:   -76.41277316532513
    Total Energy =                        -76.4127731653251345
  Basis Set: AUG-CC-PV(D+D)Z
    Blend: AUG-CC-PV(D+D)Z
  Basis Set: (AUG-CC-PV(D+D)Z AUX)
    Blend: AUG-CC-PVDZ-JKFIT
  @DF-RKS Final Energy:   -76.41273409405838
    Total Energy =                        -76.4127340940583792
  Basis Set: AUG-CC-PV(D+D)Z
    Blend: AUG-CC-PV(D+D)Z
  Basis Set: (AUG-CC-PV(D+D)Z AUX)
    Blend: AUG-CC-PVDZ-JKFIT
  @DF-RKS Final Energy:   -76.41271664998379
    Total Energy =                        -76.4127166499837926
  @DF-RKS Final Energy:   -76.41278693300094
    Total Energy =                        -76.4127869330009446
  @DF-RKS Final Energy:   -76.41281642825936
    Total Energy =                        -76.4128164282593900
  @DF-RKS Final Energy:   -76.41281398721189
    Total Energy =                        -76.4128139872118766
  @DF-RKS Final Energy:   -76.41281246521908
    Total Energy =                        -76.4128124652190621
  @DF-RKS Final Energy:   -76.41281396032750
    Total Energy =                        -76.4128139603274974
  @DF-RKS Final Energy:   -76.41280889748619
    Total Energy =                        -76.4128088974862010
  @DF-RKS Final Energy:   -76.41281740753394
    Total Energy =                        -76.4128174075339217
  @DF-RKS Final Energy:   -76.41281446078521
    Total Energy =                        -76.4128144607852136
  @DF-RKS Final Energy:   -76.41281392889994
    Total Energy =                        -76.4128139288999364
  @DF-RKS Final Energy:   -76.41281239922796
    Total Energy =                        -76.4128123992279740
  @DF-RKS Final Energy:   -76.41281241207795
    Total Energy =                        -76.4128124120779546
  **** Optimization is complete! (in 3 steps) ****
    Final optimized geometry and variables:
  @DF-RKS Final Energy:   -76.41281740753405
    Total Energy =                        -76.4128174075340496
  @DF-RKS Final Energy:   -76.41281446078526
    Total Energy =                        -76.4128144607852562
  @DF-RKS Final Energy:   -76.41281392890001
    Total Energy =                        -76.4128139289000217
  @DF-RKS Final Energy:   -76.41281239922790
    Total Energy =                        -76.4128123992279029
  @DF-RKS Final Energy:   -76.41281241207794
    Total Energy =                        -76.4128124120779404
  @DF-RKS Final Energy:   -76.41281740753396
    Total Energy =                        -76.4128174075339786
  @DF-RKS Final Energy:   -76.41281446078521
    Total Energy =                        -76.4128144607852278
  @DF-RKS Final Energy:   -76.41281392889996
    Total Energy =                        -76.4128139288999648
  @DF-RKS Final Energy:   -76.41281239922797
    Total Energy =                        -76.4128123992279598
  Basis Set: AUG-CC-PV(D+D)Z
    Blend: AUG-CC-PV(D+D)Z
  Basis Set: (AUG-CC-PV(D+D)Z AUX)
    Blend: AUG-CC-PVDZ-JKFIT
  @DF-RKS Final Energy:   -76.41281241207801
    Total Energy =                        -76.4128124120780114
  Basis Set: AUG-CC-PV(D+D)Z
    Blend: AUG-CC-PV(D+D)Z
  Basis Set: (AUG-CC-PV(D+D)Z AUX)
    Blend: AUG-CC-PVDZ-JKFIT
  @DF-RKS Final Energy:   -76.41281437286843
    Total Energy =                        -76.4128143728684250
  Multiplicity = 1
  Basis Set: AUG-CC-PV(D+D)Z
    Blend: AUG-CC-PV(D+D)Z
  Basis Set: (AUG-CC-PV(D+D)Z AUX)
    Blend: AUG-CC-PVDZ-JKFIT
  @DF-RKS Final Energy:   -76.41281491231618
    Total Energy =                        -76.4128149123161649
    Molecular point group: cs

    Geometry (in Angstrom), charge = 0, multiplicity = 1:

       Center              X                  Y                   Z               Mass
    ------------   -----------------  -----------------  -----------------  -----------------
         O            0.000000000000    -0.000178894107    -0.065908933563    15.994914619570
         H            0.000000000000     0.763337636378     0.524108565975     1.007825032230
         H            0.000000000000    -0.760498457085     0.521914038433     1.007825032230

  Charge       = 0
  Multiplicity = 1
  Basis Set: AUG-CC-PV(D+D)Z
    Blend: AUG-CC-PV(D+D)Z
  Basis Set: (AUG-CC-PV(D+D)Z AUX)
    Blend: AUG-CC-PVDZ-JKFIT

    Orbital Energies [Eh]
    ---------------------

    Doubly Occupied:

       1Ap   -19.363255     2Ap    -1.146416     3Ap    -0.642580
       4Ap    -0.504734     1App   -0.428080

  @DF-RKS Final Energy:   -76.41281003309918

   => Energetics <=

    Nuclear Repulsion Energy =              9.1395546259043794
    One-Electron Energy =                -122.7999305662944494
    Two-Electron Energy =                  43.8471163539305522
    DFT Exchange-Correlation Energy =      -6.6421068298366386
    Empirical Dispersion Energy =           0.0000000000000000
    VV10 Nonlocal Energy =                  0.0425563831969699
    Total Energy =                        -76.4128100330991771

  Dipole Moment: [D]
     X:     0.0000      Y:     0.0033      Z:     1.8750     Total:     1.8750

  Vibration                       7                   8                   9
  Freq [cm^-1]                1618.6409           3839.9674           3948.3318
  Irrep                           A1                  A1                  B2
  Reduced mass [u]              1.0823              1.0455              1.0820
  Force const [mDyne/A]         1.6707              9.0834              9.9377

  ==> Thermochemistry Components <==

  Entropy, S
    Electronic S            0.000 [cal/(mol K)]        0.000 [J/(mol K)]       0.00000000 [mEh/K] (multiplicity = 1)
    Translational S        34.608 [cal/(mol K)]      144.801 [J/(mol K)]       0.05515177 [mEh/K] (mol. weight = 18.0106 [u], P = 101325.00 [Pa])
    Rotational S           10.481 [cal/(mol K)]       43.853 [J/(mol K)]       0.01670275 [mEh/K] (symmetry no. = 2)
    Vibrational S           0.007 [cal/(mol K)]        0.030 [J/(mol K)]       0.00001131 [mEh/K]
  Total S                  45.096 [cal/(mol K)]      188.684 [J/(mol K)]       0.07186583 [mEh/K]
  Correction S              0.000 [cal/(mol K)]        0.000 [J/(mol K)]       0.00000000 [mEh/K]

  Constant volume heat capacity, Cv
    Electronic Cv           0.000 [cal/(mol K)]        0.000 [J/(mol K)]       0.00000000 [mEh/K]
    Translational Cv        2.981 [cal/(mol K)]       12.472 [J/(mol K)]       0.00475022 [mEh/K]
    Rotational Cv           2.981 [cal/(mol K)]       12.472 [J/(mol K)]       0.00475022 [mEh/K]
    Vibrational Cv          0.049 [cal/(mol K)]        0.206 [J/(mol K)]       0.00007838 [mEh/K]
  Total Cv                  6.011 [cal/(mol K)]       25.149 [J/(mol K)]       0.00957881 [mEh/K]
  Correction Cv             0.000 [cal/(mol K)]        0.000 [J/(mol K)]       0.00000000 [mEh/K]

  Constant pressure heat capacity, Cp
    Electronic Cp           0.000 [cal/(mol K)]        0.000 [J/(mol K)]       0.00000000 [mEh/K]
    Translational Cp        4.968 [cal/(mol K)]       20.786 [J/(mol K)]       0.00791703 [mEh/K]
    Rotational Cp           2.981 [cal/(mol K)]       12.472 [J/(mol K)]       0.00475022 [mEh/K]
    Vibrational Cp          0.049 [cal/(mol K)]        0.206 [J/(mol K)]       0.00007838 [mEh/K]
  Total Cp                  7.998 [cal/(mol K)]       33.464 [J/(mol K)]       0.01274562 [mEh/K]
  Correction Cp             0.000 [cal/(mol K)]        0.000 [J/(mol K)]       0.00000000 [mEh/K]

  ==> Thermochemistry Energy Analysis <==

  Raw electronic energy, E0
  Total E0, Electronic energy at well bottom at 0 [K]                  -76.41281741 [Eh]

  Zero-point energy, ZPE_vib = Sum_i nu_i / 2
    Electronic ZPE          0.000 [kcal/mol]        0.000 [kJ/mol]       0.00000000 [Eh]
    Translational ZPE       0.000 [kcal/mol]        0.000 [kJ/mol]       0.00000000 [Eh]
    Rotational ZPE          0.000 [kcal/mol]        0.000 [kJ/mol]       0.00000000 [Eh]
    Vibrational ZPE        13.448 [kcal/mol]       56.266 [kJ/mol]       0.02143059 [Eh]        4703.470 [cm^-1]
  Correction ZPE           13.448 [kcal/mol]       56.266 [kJ/mol]       0.02143059 [Eh]        4703.470 [cm^-1]
  Total ZPE, Electronic energy at 0 [K]                                -76.39138682 [Eh]

  Thermal Energy, E (includes ZPE)
    Electronic E            0.000 [kcal/mol]        0.000 [kJ/mol]       0.00000000 [Eh]
    Translational E         0.889 [kcal/mol]        3.718 [kJ/mol]       0.00141628 [Eh]
    Rotational E            0.889 [kcal/mol]        3.718 [kJ/mol]       0.00141628 [Eh]
    Vibrational E          13.450 [kcal/mol]       56.274 [kJ/mol]       0.02143358 [Eh]
  Correction E             15.227 [kcal/mol]       63.711 [kJ/mol]       0.02426613 [Eh]
  Total E, Electronic energy at  298.15 [K]                            -76.38855128 [Eh]

  Enthalpy, H_trans = E_trans + k_B * T
    Electronic H            0.000 [kcal/mol]        0.000 [kJ/mol]       0.00000000 [Eh]
    Translational H         1.481 [kcal/mol]        6.197 [kJ/mol]       0.00236046 [Eh]
    Rotational H            0.889 [kcal/mol]        3.718 [kJ/mol]       0.00141628 [Eh]
    Vibrational H          13.450 [kcal/mol]       56.274 [kJ/mol]       0.02143358 [Eh]
  Correction H             15.820 [kcal/mol]       66.190 [kJ/mol]       0.02521031 [Eh]
  Total H, Enthalpy at  298.15 [K]                                     -76.38760709 [Eh]

  Gibbs free energy, G = H - T * S
    Electronic G            0.000 [kcal/mol]        0.000 [kJ/mol]       0.00000000 [Eh]
    Translational G        -8.837 [kcal/mol]      -36.975 [kJ/mol]      -0.01408304 [Eh]
    Rotational G           -2.236 [kcal/mol]       -9.356 [kJ/mol]      -0.00356365 [Eh]
    Vibrational G          13.448 [kcal/mol]       56.265 [kJ/mol]       0.02143020 [Eh]
  Correction G              2.374 [kcal/mol]        9.934 [kJ/mol]       0.00378352 [Eh]
  Total G, Free enthalpy at  298.15 [K]                                -76.40903389 [Eh]

*** Psi4 exiting successfully. Buy a developer a beer!
