                               Psi4 1.3.2 release

  ==> Input File <==

--------------------------------------------------------------------------
memory 144 GB

molecule {
0 1
S 0.0000000000 0.0000000000 0.0000000000
H 0.0000000000 0.0000000000 1.3377284100
H 1.3366219004 0.0000000000 -0.0543984776
}

set dynamic_level 1
set basis aug-cc-pV(D+d)Z

optimize("wB97M-V")
frequencies("wB97M-V")
--------------------------------------------------------------------------

    Molecular point group: c2v
  Charge       = 0
  Multiplicity = 1
  Basis Set: AUG-CC-PV(D+D)Z
    Blend: AUG-CC-PV(D+D)Z
  Basis Set: (AUG-CC-PV(D+D)Z AUX)
    Blend: AUG-CC-PVDZ-JKFIT
  @DF-RKS Final Energy:  -399.36637356552291
    Total Energy =                       -399.3663735655229061
    Molecular point group: c2v
  Basis Set: AUG-CC-PV(D+D)Z
    Blend: AUG-CC-PV(D+D)Z
  Basis Set: (AUG-CC-PV(D+D)Z AUX)
    Blend: AUG-CC-PVDZ-JKFIT
  @DF-RKS Final Energy:  -399.36639500644145
    Total Energy =                       -399.3663950064414507
  Basis Set: AUG-CC-PV(D+D)Z
    Blend: AUG-CC-PV(D+D)Z
  Basis Set: (AUG-CC-PV(D+D)Z AUX)
    Blend: AUG-CC-PVDZ-JKFIT
  @DF-RKS Final Energy:  -399.36634796859744
    Total Energy =                       -399.3663479685974380
  Basis Set: AUG-CC-PV(D+D)Z
    Blend: AUG-CC-PV(D+D)Z
  Basis Set: (AUG-CC-PV(D+D)Z AUX)
    Blend: AUG-CC-PVDZ-JKFIT
  @DF-RKS Final Energy:  -399.36634867630636
    Total Energy =                       -399.3663486763064157
  @DF-RKS Final Energy:  -399.36639398754932
    Total Energy =                       -399.3663939875493725
  @DF-RKS Final Energy:  -399.36644777684592
    Total Energy =                       -399.3664477768459165
  @DF-RKS Final Energy:  -399.36644519674866
    Total Energy =                       -399.3664451967487139
  @DF-RKS Final Energy:  -399.36644634576129
    Total Energy =                       -399.3664463457612328
  @DF-RKS Final Energy:  -399.36644726046762
    Total Energy =                       -399.3664472604676803
  @DF-RKS Final Energy:  -399.36644399597674
    Total Energy =                       -399.3664439959766810
  @DF-RKS Final Energy:  -399.36644814536891
    Total Energy =                       -399.3664481453688495
  @DF-RKS Final Energy:  -399.36644608607270
    Total Energy =                       -399.3664460860727559
  @DF-RKS Final Energy:  -399.36644618413277
    Total Energy =                       -399.3664461841327125
  @DF-RKS Final Energy:  -399.36644598751815
    Total Energy =                       -399.3664459875181478
  @DF-RKS Final Energy:  -399.36644599962437
    Total Energy =                       -399.3664459996244318
  **** Optimization is complete! (in 3 steps) ****
    Final optimized geometry and variables:
  @DF-RKS Final Energy:  -399.36644814536857
    Total Energy =                       -399.3664481453685653
  @DF-RKS Final Energy:  -399.36644608607315
    Total Energy =                       -399.3664460860731538
  @DF-RKS Final Energy:  -399.36644618413317
    Total Energy =                       -399.3664461841331672
  @DF-RKS Final Energy:  -399.36644598751803
    Total Energy =                       -399.3664459875180341
  @DF-RKS Final Energy:  -399.36644599962403
    Total Energy =                       -399.3664459996240907
  @DF-RKS Final Energy:  -399.36644814536862
    Total Energy =                       -399.3664481453686221
  @DF-RKS Final Energy:  -399.36644608607293
    Total Energy =                       -399.3664460860728695
  @DF-RKS Final Energy:  -399.36644618413294
    Total Energy =                       -399.3664461841328830
  @DF-RKS Final Energy:  -399.36644598751803
    Total Energy =                       -399.3664459875180341
  Basis Set: AUG-CC-PV(D+D)Z
    Blend: AUG-CC-PV(D+D)Z
  Basis Set: (AUG-CC-PV(D+D)Z AUX)
    Blend: AUG-CC-PVDZ-JKFIT
  @DF-RKS Final Energy:  -399.36644599962443
    Total Energy =                       -399.3664459996244318
  Basis Set: AUG-CC-PV(D+D)Z
    Blend: AUG-CC-PV(D+D)Z
  Basis Set: (AUG-CC-PV(D+D)Z AUX)
    Blend: AUG-CC-PVDZ-JKFIT
  @DF-RKS Final Energy:  -399.36644687019668
    Total Energy =                       -399.3664468701967394
  Multiplicity = 1
  Basis Set: AUG-CC-PV(D+D)Z
    Blend: AUG-CC-PV(D+D)Z
  Basis Set: (AUG-CC-PV(D+D)Z AUX)
    Blend: AUG-CC-PVDZ-JKFIT
  @DF-RKS Final Energy:  -399.36644676176388
    Total Energy =                       -399.3664467617638820
    Molecular point group: cs

    Geometry (in Angstrom), charge = 0, multiplicity = 1:

       Center              X                  Y                   Z               Mass
    ------------   -----------------  -----------------  -----------------  -----------------
         S            0.000000000000    -0.000083267150    -0.055396413820    31.972071174400
         H            0.000000000000     0.970999531931     0.879965541231     1.007825032230
         H            0.000000000000    -0.968357978934     0.877420938382     1.007825032230

  Charge       = 0
  Multiplicity = 1
  Basis Set: AUG-CC-PV(D+D)Z
    Blend: AUG-CC-PV(D+D)Z
  Basis Set: (AUG-CC-PV(D+D)Z AUX)
    Blend: AUG-CC-PVDZ-JKFIT

    Orbital Energies [Eh]
    ---------------------

    Doubly Occupied:

       1Ap   -89.211619     2Ap    -8.132103     3Ap    -6.042115
       4Ap    -6.039385     1App   -6.033243     5Ap    -0.863129
       6Ap    -0.541708     7Ap    -0.467392     2App   -0.360428

  @DF-RKS Final Energy:  -399.36644471718546

   => Energetics <=

    Nuclear Repulsion Energy =             12.8498595296104963
    One-Electron Energy =                -576.4706120328430643
    Two-Electron Energy =                 184.3324435331779227
    DFT Exchange-Correlation Energy =     -20.1538845531937945
    Empirical Dispersion Energy =           0.0000000000000000
    VV10 Nonlocal Energy =                  0.0757488060629060
    Total Energy =                       -399.3664447171855159

  Dipole Moment: [D]
     X:     0.0000      Y:     0.0000      Z:     1.0051     Total:     1.0051

  Vibration                       7                   8                   9
  Freq [cm^-1]                1183.8107           2692.0386           2719.7542
  Irrep                           A1                  B2                  A1
  Reduced mass [u]              1.0392              1.0397              1.0361
  Force const [mDyne/A]         0.8580              4.4394              4.5155

  ==> Thermochemistry Components <==

  Entropy, S
    Electronic S            0.000 [cal/(mol K)]        0.000 [J/(mol K)]       0.00000000 [mEh/K] (multiplicity = 1)
    Translational S        36.501 [cal/(mol K)]      152.721 [J/(mol K)]       0.05816835 [mEh/K] (mol. weight = 33.9877 [u], P = 101325.00 [Pa])
    Rotational S           12.614 [cal/(mol K)]       52.776 [J/(mol K)]       0.02010147 [mEh/K] (symmetry no. = 2)
    Vibrational S           0.044 [cal/(mol K)]        0.185 [J/(mol K)]       0.00007064 [mEh/K]
  Total S                  49.159 [cal/(mol K)]      205.683 [J/(mol K)]       0.07834046 [mEh/K]
  Correction S              0.000 [cal/(mol K)]        0.000 [J/(mol K)]       0.00000000 [mEh/K]

  Constant volume heat capacity, Cv
    Electronic Cv           0.000 [cal/(mol K)]        0.000 [J/(mol K)]       0.00000000 [mEh/K]
    Translational Cv        2.981 [cal/(mol K)]       12.472 [J/(mol K)]       0.00475022 [mEh/K]
    Rotational Cv           2.981 [cal/(mol K)]       12.472 [J/(mol K)]       0.00475022 [mEh/K]
    Vibrational Cv          0.217 [cal/(mol K)]        0.908 [J/(mol K)]       0.00034601 [mEh/K]
  Total Cv                  6.179 [cal/(mol K)]       25.852 [J/(mol K)]       0.00984644 [mEh/K]
  Correction Cv             0.000 [cal/(mol K)]        0.000 [J/(mol K)]       0.00000000 [mEh/K]

  Constant pressure heat capacity, Cp
    Electronic Cp           0.000 [cal/(mol K)]        0.000 [J/(mol K)]       0.00000000 [mEh/K]
    Translational Cp        4.968 [cal/(mol K)]       20.786 [J/(mol K)]       0.00791703 [mEh/K]
    Rotational Cp           2.981 [cal/(mol K)]       12.472 [J/(mol K)]       0.00475022 [mEh/K]
    Vibrational Cp          0.217 [cal/(mol K)]        0.908 [J/(mol K)]       0.00034601 [mEh/K]
  Total Cp                  8.166 [cal/(mol K)]       34.166 [J/(mol K)]       0.01301326 [mEh/K]
  Correction Cp             0.000 [cal/(mol K)]        0.000 [J/(mol K)]       0.00000000 [mEh/K]

  ==> Thermochemistry Energy Analysis <==

  Raw electronic energy, E0
  Total E0, Electronic energy at well bottom at 0 [K]                 -399.36644815 [Eh]

  Zero-point energy, ZPE_vib = Sum_i nu_i / 2
    Electronic ZPE          0.000 [kcal/mol]        0.000 [kJ/mol]       0.00000000 [Eh]
    Translational ZPE       0.000 [kcal/mol]        0.000 [kJ/mol]       0.00000000 [Eh]
    Rotational ZPE          0.000 [kcal/mol]        0.000 [kJ/mol]       0.00000000 [Eh]
    Vibrational ZPE         9.429 [kcal/mol]       39.450 [kJ/mol]       0.01502589 [Eh]        3297.802 [cm^-1]
  Correction ZPE            9.429 [kcal/mol]       39.450 [kJ/mol]       0.01502589 [Eh]        3297.802 [cm^-1]
  Total ZPE, Electronic energy at 0 [K]                               -399.35142226 [Eh]

  Thermal Energy, E (includes ZPE)
    Electronic E            0.000 [kcal/mol]        0.000 [kJ/mol]       0.00000000 [Eh]
    Translational E         0.889 [kcal/mol]        3.718 [kJ/mol]       0.00141628 [Eh]
    Rotational E            0.889 [kcal/mol]        3.718 [kJ/mol]       0.00141628 [Eh]
    Vibrational E           9.440 [kcal/mol]       39.498 [kJ/mol]       0.01504382 [Eh]
  Correction E             11.218 [kcal/mol]       46.934 [kJ/mol]       0.01787638 [Eh]
  Total E, Electronic energy at  298.15 [K]                           -399.34857177 [Eh]

  Enthalpy, H_trans = E_trans + k_B * T
    Electronic H            0.000 [kcal/mol]        0.000 [kJ/mol]       0.00000000 [Eh]
    Translational H         1.481 [kcal/mol]        6.197 [kJ/mol]       0.00236046 [Eh]
    Rotational H            0.889 [kcal/mol]        3.718 [kJ/mol]       0.00141628 [Eh]
    Vibrational H           9.440 [kcal/mol]       39.498 [kJ/mol]       0.01504382 [Eh]
  Correction H             11.810 [kcal/mol]       49.413 [kJ/mol]       0.01882056 [Eh]
  Total H, Enthalpy at  298.15 [K]                                    -399.34762759 [Eh]

  Gibbs free energy, G = H - T * S
    Electronic G            0.000 [kcal/mol]        0.000 [kJ/mol]       0.00000000 [Eh]
    Translational G        -9.402 [kcal/mol]      -39.336 [kJ/mol]      -0.01498243 [Eh]
    Rotational G           -2.872 [kcal/mol]      -12.017 [kJ/mol]      -0.00457698 [Eh]
    Vibrational G           9.427 [kcal/mol]       39.442 [kJ/mol]       0.01502276 [Eh]
  Correction G             -2.847 [kcal/mol]      -11.911 [kJ/mol]      -0.00453665 [Eh]
  Total G, Free enthalpy at  298.15 [K]                               -399.37098479 [Eh]

*** Psi4 exiting successfully. Buy a developer a beer!
