                               Psi4 1.3.2 release

  ==> Input File <==

--------------------------------------------------------------------------
memory 144 GB

molecule {
0 1
Cl 0.0000000000 0.0000000000 0.0000000000
H 0.0000000000 0.0000000000 1.2756042300
}

set dynamic_level 1
set basis aug-cc-pV(D+d)Z

optimize("wB97M-V")
frequencies("wB97M-V")
--------------------------------------------------------------------------

    Molecular point group: c2v
  Charge       = 0
  Multiplicity = 1
  Basis Set: AUG-CC-PV(D+D)Z
    Blend: AUG-CC-PV(D+D)Z
  Basis Set: (AUG-CC-PV(D+D)Z AUX)
    Blend: AUG-CC-PVDZ-JKFIT
  @DF-RKS Final Energy:  -460.78424337192445
    Total Energy =                       -460.7842433719243900
    Molecular point group: c2v
  Basis Set: AUG-CC-PV(D+D)Z
    Blend: AUG-CC-PV(D+D)Z
  Basis Set: (AUG-CC-PV(D+D)Z AUX)
    Blend: AUG-CC-PVDZ-JKFIT
  @DF-RKS Final Energy:  -460.78427323526228
    Total Energy =                       -460.7842732352622193
  Basis Set: AUG-CC-PV(D+D)Z
    Blend: AUG-CC-PV(D+D)Z
  Basis Set: (AUG-CC-PV(D+D)Z AUX)
    Blend: AUG-CC-PVDZ-JKFIT
  @DF-RKS Final Energy:  -460.78420458498101
    Total Energy =                       -460.7842045849809551
  Basis Set: AUG-CC-PV(D+D)Z
    Blend: AUG-CC-PV(D+D)Z
  Basis Set: (AUG-CC-PV(D+D)Z AUX)
    Blend: AUG-CC-PVDZ-JKFIT
  @DF-RKS Final Energy:  -460.78431039091828
    Total Energy =                       -460.7843103909183355
  @DF-RKS Final Energy:  -460.78430449881068
    Total Energy =                       -460.7843044988106271
  @DF-RKS Final Energy:  -460.78430788325727
    Total Energy =                       -460.7843078832572701
  @DF-RKS Final Energy:  -460.78431056506179
    Total Energy =                       -460.7843105650618440
  @DF-RKS Final Energy:  -460.78430630456336
    Total Energy =                       -460.7843063045633016
  @DF-RKS Final Energy:  -460.78430640142335
    Total Energy =                       -460.7843064014232937
  **** Optimization is complete! (in 3 steps) ****
    Final optimized geometry and variables:
  @DF-RKS Final Energy:  -460.78431056506156
    Total Energy =                       -460.7843105650616167
  @DF-RKS Final Energy:  -460.78430630456296
    Total Energy =                       -460.7843063045629606
  Basis Set: AUG-CC-PV(D+D)Z
    Blend: AUG-CC-PV(D+D)Z
  Basis Set: (AUG-CC-PV(D+D)Z AUX)
    Blend: AUG-CC-PVDZ-JKFIT
  @DF-RKS Final Energy:  -460.78430640142358
    Total Energy =                       -460.7843064014235210
  Basis Set: AUG-CC-PV(D+D)Z
    Blend: AUG-CC-PV(D+D)Z
  Basis Set: (AUG-CC-PV(D+D)Z AUX)
    Blend: AUG-CC-PVDZ-JKFIT
  @DF-RKS Final Energy:  -460.78431056506179
    Total Energy =                       -460.7843105650617872
  Multiplicity = 1
  Basis Set: AUG-CC-PV(D+D)Z
    Blend: AUG-CC-PV(D+D)Z
  Basis Set: (AUG-CC-PV(D+D)Z AUX)
    Blend: AUG-CC-PVDZ-JKFIT
  @DF-RKS Final Energy:  -460.78430630456336
    Total Energy =                       -460.7843063045633585
    Molecular point group: c2v

    Geometry (in Angstrom), charge = 0, multiplicity = 1:

       Center              X                  Y                   Z               Mass
    ------------   -----------------  -----------------  -----------------  -----------------
         CL           0.000000000000     0.000000000000    -0.035955810647    34.968852682000
         H            0.000000000000     0.000000000000     1.247571161017     1.007825032230

  Charge       = 0
  Multiplicity = 1
  Basis Set: AUG-CC-PV(D+D)Z
    Blend: AUG-CC-PV(D+D)Z
  Basis Set: (AUG-CC-PV(D+D)Z AUX)
    Blend: AUG-CC-PVDZ-JKFIT

    Orbital Energies [Eh]
    ---------------------

    Doubly Occupied:

       1A1  -101.896800     2A1    -9.662100     3A1    -7.366477
       1B2    -7.357747     1B1    -7.357747     4A1    -0.969697
       5A1    -0.575290     2B2    -0.435813     2B1    -0.435813

  @DF-RKS Final Energy:  -460.78430640142307

   => Energetics <=

    Nuclear Repulsion Energy =              7.0088223932919798
    One-Electron Energy =                -649.7284704991398030
    Two-Electron Energy =                 203.8662754944670894
    DFT Exchange-Correlation Energy =     -22.0073307614229563
    Empirical Dispersion Energy =           0.0000000000000000
    VV10 Nonlocal Energy =                  0.0763969713806492
    Total Energy =                       -460.7843064014230094

  Dipole Moment: [D]
     X:     0.0000      Y:     0.0000      Z:     1.1314     Total:     1.1314

  Vibration                       6
  Freq [cm^-1]                2983.9874
  Irrep                           A1
  Reduced mass [u]              1.0360
  Force const [mDyne/A]         5.4351

  ==> Thermochemistry Components <==

  Entropy, S
    Electronic S            0.000 [cal/(mol K)]        0.000 [J/(mol K)]       0.00000000 [mEh/K] (multiplicity = 1)
    Translational S        36.671 [cal/(mol K)]      153.430 [J/(mol K)]       0.05843851 [mEh/K] (mol. weight = 35.9767 [u], P = 101325.00 [Pa])
    Rotational S            7.932 [cal/(mol K)]       33.189 [J/(mol K)]       0.01264117 [mEh/K] (symmetry no. = 1)
    Vibrational S           0.000 [cal/(mol K)]        0.000 [J/(mol K)]       0.00000003 [mEh/K]
  Total S                  44.603 [cal/(mol K)]      186.620 [J/(mol K)]       0.07107970 [mEh/K]
  Correction S              0.000 [cal/(mol K)]        0.000 [J/(mol K)]       0.00000000 [mEh/K]

  Constant volume heat capacity, Cv
    Electronic Cv           0.000 [cal/(mol K)]        0.000 [J/(mol K)]       0.00000000 [mEh/K]
    Translational Cv        2.981 [cal/(mol K)]       12.472 [J/(mol K)]       0.00475022 [mEh/K]
    Rotational Cv           1.987 [cal/(mol K)]        8.314 [J/(mol K)]       0.00316681 [mEh/K]
    Vibrational Cv          0.000 [cal/(mol K)]        0.001 [J/(mol K)]       0.00000037 [mEh/K]
  Total Cv                  4.968 [cal/(mol K)]       20.787 [J/(mol K)]       0.00791739 [mEh/K]
  Correction Cv             0.000 [cal/(mol K)]        0.000 [J/(mol K)]       0.00000000 [mEh/K]

  Constant pressure heat capacity, Cp
    Electronic Cp           0.000 [cal/(mol K)]        0.000 [J/(mol K)]       0.00000000 [mEh/K]
    Translational Cp        4.968 [cal/(mol K)]       20.786 [J/(mol K)]       0.00791703 [mEh/K]
    Rotational Cp           1.987 [cal/(mol K)]        8.314 [J/(mol K)]       0.00316681 [mEh/K]
    Vibrational Cp          0.000 [cal/(mol K)]        0.001 [J/(mol K)]       0.00000037 [mEh/K]
  Total Cp                  6.955 [cal/(mol K)]       29.102 [J/(mol K)]       0.01108420 [mEh/K]
  Correction Cp             0.000 [cal/(mol K)]        0.000 [J/(mol K)]       0.00000000 [mEh/K]

  ==> Thermochemistry Energy Analysis <==

  Raw electronic energy, E0
  Total E0, Electronic energy at well bottom at 0 [K]                 -460.78431057 [Eh]

  Zero-point energy, ZPE_vib = Sum_i nu_i / 2
    Electronic ZPE          0.000 [kcal/mol]        0.000 [kJ/mol]       0.00000000 [Eh]
    Translational ZPE       0.000 [kcal/mol]        0.000 [kJ/mol]       0.00000000 [Eh]
    Rotational ZPE          0.000 [kcal/mol]        0.000 [kJ/mol]       0.00000000 [Eh]
    Vibrational ZPE         4.266 [kcal/mol]       17.848 [kJ/mol]       0.00679802 [Eh]        1491.994 [cm^-1]
  Correction ZPE            4.266 [kcal/mol]       17.848 [kJ/mol]       0.00679802 [Eh]        1491.994 [cm^-1]
  Total ZPE, Electronic energy at 0 [K]                               -460.77751254 [Eh]

  Thermal Energy, E (includes ZPE)
    Electronic E            0.000 [kcal/mol]        0.000 [kJ/mol]       0.00000000 [Eh]
    Translational E         0.889 [kcal/mol]        3.718 [kJ/mol]       0.00141628 [Eh]
    Rotational E            0.592 [kcal/mol]        2.479 [kJ/mol]       0.00094418 [Eh]
    Vibrational E           4.266 [kcal/mol]       17.848 [kJ/mol]       0.00679803 [Eh]
  Correction E              5.747 [kcal/mol]       24.046 [kJ/mol]       0.00915849 [Eh]
  Total E, Electronic energy at  298.15 [K]                           -460.77515207 [Eh]

  Enthalpy, H_trans = E_trans + k_B * T
    Electronic H            0.000 [kcal/mol]        0.000 [kJ/mol]       0.00000000 [Eh]
    Translational H         1.481 [kcal/mol]        6.197 [kJ/mol]       0.00236046 [Eh]
    Rotational H            0.592 [kcal/mol]        2.479 [kJ/mol]       0.00094418 [Eh]
    Vibrational H           4.266 [kcal/mol]       17.848 [kJ/mol]       0.00679803 [Eh]
  Correction H              6.340 [kcal/mol]       26.525 [kJ/mol]       0.01010268 [Eh]
  Total H, Enthalpy at  298.15 [K]                                    -460.77420789 [Eh]

  Gibbs free energy, G = H - T * S
    Electronic G            0.000 [kcal/mol]        0.000 [kJ/mol]       0.00000000 [Eh]
    Translational G        -9.452 [kcal/mol]      -39.548 [kJ/mol]      -0.01506298 [Eh]
    Rotational G           -1.773 [kcal/mol]       -7.416 [kJ/mol]      -0.00282478 [Eh]
    Vibrational G           4.266 [kcal/mol]       17.848 [kJ/mol]       0.00679802 [Eh]
  Correction G             -6.959 [kcal/mol]      -29.116 [kJ/mol]      -0.01108974 [Eh]
  Total G, Free enthalpy at  298.15 [K]                               -460.79540030 [Eh]

*** Psi4 exiting successfully. Buy a developer a beer!
