                               Psi4 1.3.2 release

  ==> Input File <==

--------------------------------------------------------------------------
memory 144 GB

molecule {
0 1
H 0.0000000000 0.0000000000 0.0000000000
C 0.0000000000 0.0000000000 1.0668000000
N 0.0000000000 0.0000000000 2.2232000000
}

set dynamic_level 1
set basis aug-cc-pV(D+d)Z

optimize("wB97M-V")
frequencies("wB97M-V")
--------------------------------------------------------------------------

    Molecular point group: c2v
  Charge       = 0
  Multiplicity = 1
  Basis Set: AUG-CC-PV(D+D)Z
    Blend: AUG-CC-PV(D+D)Z
  Basis Set: (AUG-CC-PV(D+D)Z AUX)
    Blend: AUG-CC-PVDZ-JKFIT
  @DF-RKS Final Energy:   -93.40626122937230
    Total Energy =                        -93.4062612293723049
    Molecular point group: c2v
  Basis Set: AUG-CC-PV(D+D)Z
    Blend: AUG-CC-PV(D+D)Z
  Basis Set: (AUG-CC-PV(D+D)Z AUX)
    Blend: AUG-CC-PVDZ-JKFIT
  @DF-RKS Final Energy:   -93.40628375815255
    Total Energy =                        -93.4062837581525400
  Basis Set: AUG-CC-PV(D+D)Z
    Blend: AUG-CC-PV(D+D)Z
  Basis Set: (AUG-CC-PV(D+D)Z AUX)
    Blend: AUG-CC-PVDZ-JKFIT
  @DF-RKS Final Energy:   -93.40622787955144
    Total Energy =                        -93.4062278795514374
  Basis Set: AUG-CC-PV(D+D)Z
    Blend: AUG-CC-PV(D+D)Z
  Basis Set: (AUG-CC-PV(D+D)Z AUX)
    Blend: AUG-CC-PVDZ-JKFIT
  @DF-RKS Final Energy:   -93.40624278663783
    Total Energy =                        -93.4062427866378329
  @DF-RKS Final Energy:   -93.40627409448039
    Total Energy =                        -93.4062740944803949
  @DF-RKS Final Energy:   -93.40630603393717
    Total Energy =                        -93.4063060339371845
  @DF-RKS Final Energy:   -93.40629798874419
    Total Energy =                        -93.4062979887441855
  @DF-RKS Final Energy:   -93.40630372558509
    Total Energy =                        -93.4063037255850901
  @DF-RKS Final Energy:   -93.40630435536843
    Total Energy =                        -93.4063043553684338
  @DF-RKS Final Energy:   -93.40630209169782
    Total Energy =                        -93.4063020916978104
  @DF-RKS Final Energy:   -93.40630646038196
    Total Energy =                        -93.4063064603819697
  @DF-RKS Final Energy:   -93.40630120524283
    Total Energy =                        -93.4063012052428263
  @DF-RKS Final Energy:   -93.40630131685018
    Total Energy =                        -93.4063013168501612
  @DF-RKS Final Energy:   -93.40630366158283
    Total Energy =                        -93.4063036615828253
  @DF-RKS Final Energy:   -93.40630363907036
    Total Energy =                        -93.4063036390703587
  **** Optimization is complete! (in 3 steps) ****
    Final optimized geometry and variables:
  @DF-RKS Final Energy:   -93.40630646038204
    Total Energy =                        -93.4063064603820266
  @DF-RKS Final Energy:   -93.40630120524297
    Total Energy =                        -93.4063012052429684
  @DF-RKS Final Energy:   -93.40630131685027
    Total Energy =                        -93.4063013168502891
  @DF-RKS Final Energy:   -93.40630366158287
    Total Energy =                        -93.4063036615828679
  @DF-RKS Final Energy:   -93.40630363907047
    Total Energy =                        -93.4063036390704582
  @DF-RKS Final Energy:   -93.40630646038201
    Total Energy =                        -93.4063064603820123
  @DF-RKS Final Energy:   -93.40630120524298
    Total Energy =                        -93.4063012052429826
  @DF-RKS Final Energy:   -93.40630131685025
    Total Energy =                        -93.4063013168502465
  @DF-RKS Final Energy:   -93.40630366158275
    Total Energy =                        -93.4063036615827542
  @DF-RKS Final Energy:   -93.40630363907033
    Total Energy =                        -93.4063036390703303
  Basis Set: AUG-CC-PV(D+D)Z
    Blend: AUG-CC-PV(D+D)Z
  Basis Set: (AUG-CC-PV(D+D)Z AUX)
    Blend: AUG-CC-PVDZ-JKFIT
  @DF-RKS Final Energy:   -93.40630084179345
    Total Energy =                        -93.4063008417934526
  Basis Set: AUG-CC-PV(D+D)Z
    Blend: AUG-CC-PV(D+D)Z
  Basis Set: (AUG-CC-PV(D+D)Z AUX)
    Blend: AUG-CC-PVDZ-JKFIT
  @DF-RKS Final Energy:   -93.40630072478059
    Total Energy =                        -93.4063007247805785
  Multiplicity = 1
  Basis Set: AUG-CC-PV(D+D)Z
    Blend: AUG-CC-PV(D+D)Z
  Basis Set: (AUG-CC-PV(D+D)Z AUX)
    Blend: AUG-CC-PVDZ-JKFIT
  @DF-RKS Final Energy:   -93.40630620558073
    Total Energy =                        -93.4063062055807478
    Molecular point group: cs

    Geometry (in Angstrom), charge = 0, multiplicity = 1:

       Center              X                  Y                   Z               Mass
    ------------   -----------------  -----------------  -----------------  -----------------
         H            0.000000000000    -0.002247522066    -1.632250465138     1.007825032230
         C            0.000000000000     0.000364330430    -0.558438039657    12.000000000000
         N            0.000000000000    -0.000150456690     0.596031939193    14.003074004430

  Charge       = 0
  Multiplicity = 1
  Basis Set: AUG-CC-PV(D+D)Z
    Blend: AUG-CC-PV(D+D)Z
  Basis Set: (AUG-CC-PV(D+D)Z AUX)
    Blend: AUG-CC-PVDZ-JKFIT

    Orbital Energies [Eh]
    ---------------------

    Doubly Occupied:

       1Ap   -14.554874     2Ap   -10.420331     3Ap    -1.055153
       4Ap    -0.719142     5Ap    -0.498632     1App   -0.469875
       6Ap    -0.469875

  @DF-RKS Final Energy:   -93.40630620483347

   => Energetics <=

    Nuclear Repulsion Energy =             23.8708191598642685
    One-Electron Energy =                -172.5829824123642879
    Two-Electron Energy =                  64.1900263054500755
    DFT Exchange-Correlation Energy =      -8.9425502785071629
    Empirical Dispersion Energy =           0.0000000000000000
    VV10 Nonlocal Energy =                  0.0583810207236582
    Total Energy =                        -93.4063062048334700

  Dipole Moment: [D]
     X:     0.0000      Y:    -0.0025      Z:    -3.0817     Total:     3.0817

  Vibration                       6                   7                   8
  Freq [cm^-1]                 733.9223            734.9977           2221.8538
  Irrep                           B1                  B2                  A1
  Reduced mass [u]              1.3446              1.3446              4.9454
  Force const [mDyne/A]         0.4267              0.4280             14.3842

  Vibration                       9
  Freq [cm^-1]                3463.3751
  Irrep                           A1
  Reduced mass [u]              1.1995
  Force const [mDyne/A]         8.4769

  ==> Thermochemistry Components <==

  Entropy, S
    Electronic S            0.000 [cal/(mol K)]        0.000 [J/(mol K)]       0.00000000 [mEh/K] (multiplicity = 1)
    Translational S        35.816 [cal/(mol K)]      149.856 [J/(mol K)]       0.05707695 [mEh/K] (mol. weight = 27.0109 [u], P = 101325.00 [Pa])
    Rotational S           11.810 [cal/(mol K)]       49.411 [J/(mol K)]       0.01881968 [mEh/K] (symmetry no. = 1)
    Vibrational S           0.536 [cal/(mol K)]        2.243 [J/(mol K)]       0.00085431 [mEh/K]
  Total S                  48.162 [cal/(mol K)]      201.510 [J/(mol K)]       0.07675093 [mEh/K]
  Correction S              0.000 [cal/(mol K)]        0.000 [J/(mol K)]       0.00000000 [mEh/K]

  Constant volume heat capacity, Cv
    Electronic Cv           0.000 [cal/(mol K)]        0.000 [J/(mol K)]       0.00000000 [mEh/K]
    Translational Cv        2.981 [cal/(mol K)]       12.472 [J/(mol K)]       0.00475022 [mEh/K]
    Rotational Cv           1.987 [cal/(mol K)]        8.314 [J/(mol K)]       0.00316681 [mEh/K]
    Vibrational Cv          1.535 [cal/(mol K)]        6.420 [J/(mol K)]       0.00244539 [mEh/K]
  Total Cv                  6.503 [cal/(mol K)]       27.207 [J/(mol K)]       0.01036242 [mEh/K]
  Correction Cv             0.000 [cal/(mol K)]        0.000 [J/(mol K)]       0.00000000 [mEh/K]

  Constant pressure heat capacity, Cp
    Electronic Cp           0.000 [cal/(mol K)]        0.000 [J/(mol K)]       0.00000000 [mEh/K]
    Translational Cp        4.968 [cal/(mol K)]       20.786 [J/(mol K)]       0.00791703 [mEh/K]
    Rotational Cp           1.987 [cal/(mol K)]        8.314 [J/(mol K)]       0.00316681 [mEh/K]
    Vibrational Cp          1.535 [cal/(mol K)]        6.420 [J/(mol K)]       0.00244539 [mEh/K]
  Total Cp                  8.490 [cal/(mol K)]       35.521 [J/(mol K)]       0.01352923 [mEh/K]
  Correction Cp             0.000 [cal/(mol K)]        0.000 [J/(mol K)]       0.00000000 [mEh/K]

  ==> Thermochemistry Energy Analysis <==

  Raw electronic energy, E0
  Total E0, Electronic energy at well bottom at 0 [K]                  -93.40630646 [Eh]

  Zero-point energy, ZPE_vib = Sum_i nu_i / 2
    Electronic ZPE          0.000 [kcal/mol]        0.000 [kJ/mol]       0.00000000 [Eh]
    Translational ZPE       0.000 [kcal/mol]        0.000 [kJ/mol]       0.00000000 [Eh]
    Rotational ZPE          0.000 [kcal/mol]        0.000 [kJ/mol]       0.00000000 [Eh]
    Vibrational ZPE        10.227 [kcal/mol]       42.791 [kJ/mol]       0.01629835 [Eh]        3577.074 [cm^-1]
  Correction ZPE           10.227 [kcal/mol]       42.791 [kJ/mol]       0.01629835 [Eh]        3577.074 [cm^-1]
  Total ZPE, Electronic energy at 0 [K]                                -93.39000811 [Eh]

  Thermal Energy, E (includes ZPE)
    Electronic E            0.000 [kcal/mol]        0.000 [kJ/mol]       0.00000000 [Eh]
    Translational E         0.889 [kcal/mol]        3.718 [kJ/mol]       0.00141628 [Eh]
    Rotational E            0.592 [kcal/mol]        2.479 [kJ/mol]       0.00094418 [Eh]
    Vibrational E          10.352 [kcal/mol]       43.315 [kJ/mol]       0.01649768 [Eh]
  Correction E             11.834 [kcal/mol]       49.512 [kJ/mol]       0.01885814 [Eh]
  Total E, Electronic energy at  298.15 [K]                            -93.38744832 [Eh]

  Enthalpy, H_trans = E_trans + k_B * T
    Electronic H            0.000 [kcal/mol]        0.000 [kJ/mol]       0.00000000 [Eh]
    Translational H         1.481 [kcal/mol]        6.197 [kJ/mol]       0.00236046 [Eh]
    Rotational H            0.592 [kcal/mol]        2.479 [kJ/mol]       0.00094418 [Eh]
    Vibrational H          10.352 [kcal/mol]       43.315 [kJ/mol]       0.01649768 [Eh]
  Correction H             12.426 [kcal/mol]       51.991 [kJ/mol]       0.01980233 [Eh]
  Total H, Enthalpy at  298.15 [K]                                     -93.38650413 [Eh]

  Gibbs free energy, G = H - T * S
    Electronic G            0.000 [kcal/mol]        0.000 [kJ/mol]       0.00000000 [Eh]
    Translational G        -9.197 [kcal/mol]      -38.482 [kJ/mol]      -0.01465703 [Eh]
    Rotational G           -2.929 [kcal/mol]      -12.253 [kJ/mol]      -0.00466690 [Eh]
    Vibrational G          10.193 [kcal/mol]       42.646 [kJ/mol]       0.01624297 [Eh]
  Correction G             -1.933 [kcal/mol]       -8.089 [kJ/mol]      -0.00308096 [Eh]
  Total G, Free enthalpy at  298.15 [K]                                -93.40938742 [Eh]

*** Psi4 exiting successfully. Buy a developer a beer!
