                               Psi4 1.3.2 release

  ==> Input File <==

--------------------------------------------------------------------------
memory 144 GB

molecule {
0 1
F 0.0000000000 0.0000000000 0.0000000000
H 0.0000000000 0.0000000000 0.9157690000
}

set dynamic_level 1
set basis aug-cc-pV(D+d)Z

optimize("wB97M-V")
frequencies("wB97M-V")
--------------------------------------------------------------------------

    Molecular point group: c2v
  Charge       = 0
  Multiplicity = 1
  Basis Set: AUG-CC-PV(D+D)Z
    Blend: AUG-CC-PV(D+D)Z
  Basis Set: (AUG-CC-PV(D+D)Z AUX)
    Blend: AUG-CC-PVDZ-JKFIT
  @DF-RKS Final Energy:  -100.43038969139643
    Total Energy =                       -100.4303896913964280
    Molecular point group: c2v
  Basis Set: AUG-CC-PV(D+D)Z
    Blend: AUG-CC-PV(D+D)Z
  Basis Set: (AUG-CC-PV(D+D)Z AUX)
    Blend: AUG-CC-PVDZ-JKFIT
  @DF-RKS Final Energy:  -100.43043011206733
    Total Energy =                       -100.4304301120673415
  Basis Set: AUG-CC-PV(D+D)Z
    Blend: AUG-CC-PV(D+D)Z
  Basis Set: (AUG-CC-PV(D+D)Z AUX)
    Blend: AUG-CC-PVDZ-JKFIT
  @DF-RKS Final Energy:  -100.43033241972987
    Total Energy =                       -100.4303324197298508
  Basis Set: AUG-CC-PV(D+D)Z
    Blend: AUG-CC-PV(D+D)Z
  Basis Set: (AUG-CC-PV(D+D)Z AUX)
    Blend: AUG-CC-PVDZ-JKFIT
  @DF-RKS Final Energy:  -100.43046153222184
    Total Energy =                       -100.4304615322218410
  @DF-RKS Final Energy:  -100.43045613704419
    Total Energy =                       -100.4304561370441888
  @DF-RKS Final Energy:  -100.43045100283949
    Total Energy =                       -100.4304510028394901
  @DF-RKS Final Energy:  -100.43046173075886
    Total Energy =                       -100.4304617307588643
  @DF-RKS Final Energy:  -100.43045386962800
    Total Energy =                       -100.4304538696279963
  @DF-RKS Final Energy:  -100.43045371761798
    Total Energy =                       -100.4304537176179792
  **** Optimization is complete! (in 3 steps) ****
    Final optimized geometry and variables:
  @DF-RKS Final Energy:  -100.43046173075885
    Total Energy =                       -100.4304617307588501
  @DF-RKS Final Energy:  -100.43045386962798
    Total Energy =                       -100.4304538696279820
  Basis Set: AUG-CC-PV(D+D)Z
    Blend: AUG-CC-PV(D+D)Z
  Basis Set: (AUG-CC-PV(D+D)Z AUX)
    Blend: AUG-CC-PVDZ-JKFIT
  @DF-RKS Final Energy:  -100.43045371761808
    Total Energy =                       -100.4304537176180787
  Basis Set: AUG-CC-PV(D+D)Z
    Blend: AUG-CC-PV(D+D)Z
  Basis Set: (AUG-CC-PV(D+D)Z AUX)
    Blend: AUG-CC-PVDZ-JKFIT
  @DF-RKS Final Energy:  -100.43046173075886
    Total Energy =                       -100.4304617307588785
  Multiplicity = 1
  Basis Set: AUG-CC-PV(D+D)Z
    Blend: AUG-CC-PV(D+D)Z
  Basis Set: (AUG-CC-PV(D+D)Z AUX)
    Blend: AUG-CC-PVDZ-JKFIT
  @DF-RKS Final Energy:  -100.43045386962797
    Total Energy =                       -100.4304538696279678
    Molecular point group: c2v

    Geometry (in Angstrom), charge = 0, multiplicity = 1:

       Center              X                  Y                   Z               Mass
    ------------   -----------------  -----------------  -----------------  -----------------
         F            0.000000000000     0.000000000000    -0.046402321746    18.998403162730
         H            0.000000000000     0.000000000000     0.874725262838     1.007825032230

  Charge       = 0
  Multiplicity = 1
  Basis Set: AUG-CC-PV(D+D)Z
    Blend: AUG-CC-PV(D+D)Z
  Basis Set: (AUG-CC-PV(D+D)Z AUX)
    Blend: AUG-CC-PVDZ-JKFIT

    Orbital Energies [Eh]
    ---------------------

    Doubly Occupied:

       1A1   -24.930490     2A1    -1.343370     3A1    -0.667810
       1B2    -0.532187     1B1    -0.532187

  @DF-RKS Final Energy:  -100.43045371761799

   => Energetics <=

    Nuclear Repulsion Energy =              5.1703965614950125
    One-Electron Energy =                -150.2566523489543897
    Two-Electron Energy =                  52.5065835668759178
    DFT Exchange-Correlation Energy =      -7.8941553845485490
    Empirical Dispersion Energy =           0.0000000000000000
    VV10 Nonlocal Energy =                  0.0433738875140163
    Total Energy =                       -100.4304537176179934

  Dipole Moment: [D]
     X:     0.0000      Y:     0.0000      Z:     1.8043     Total:     1.8043

  Vibration                       6
  Freq [cm^-1]                4096.2002
  Irrep                           A1
  Reduced mass [u]              1.0583
  Force const [mDyne/A]        10.4623

  ==> Thermochemistry Components <==

  Entropy, S
    Electronic S            0.000 [cal/(mol K)]        0.000 [J/(mol K)]       0.00000000 [mEh/K] (multiplicity = 1)
    Translational S        34.921 [cal/(mol K)]      146.112 [J/(mol K)]       0.05565095 [mEh/K] (mol. weight = 20.0062 [u], P = 101325.00 [Pa])
    Rotational S            6.571 [cal/(mol K)]       27.493 [J/(mol K)]       0.01047155 [mEh/K] (symmetry no. = 1)
    Vibrational S           0.000 [cal/(mol K)]        0.000 [J/(mol K)]       0.00000000 [mEh/K]
  Total S                  41.492 [cal/(mol K)]      173.605 [J/(mol K)]       0.06612250 [mEh/K]
  Correction S              0.000 [cal/(mol K)]        0.000 [J/(mol K)]       0.00000000 [mEh/K]

  Constant volume heat capacity, Cv
    Electronic Cv           0.000 [cal/(mol K)]        0.000 [J/(mol K)]       0.00000000 [mEh/K]
    Translational Cv        2.981 [cal/(mol K)]       12.472 [J/(mol K)]       0.00475022 [mEh/K]
    Rotational Cv           1.987 [cal/(mol K)]        8.314 [J/(mol K)]       0.00316681 [mEh/K]
    Vibrational Cv          0.000 [cal/(mol K)]        0.000 [J/(mol K)]       0.00000000 [mEh/K]
  Total Cv                  4.968 [cal/(mol K)]       20.786 [J/(mol K)]       0.00791703 [mEh/K]
  Correction Cv             0.000 [cal/(mol K)]        0.000 [J/(mol K)]       0.00000000 [mEh/K]

  Constant pressure heat capacity, Cp
    Electronic Cp           0.000 [cal/(mol K)]        0.000 [J/(mol K)]       0.00000000 [mEh/K]
    Translational Cp        4.968 [cal/(mol K)]       20.786 [J/(mol K)]       0.00791703 [mEh/K]
    Rotational Cp           1.987 [cal/(mol K)]        8.314 [J/(mol K)]       0.00316681 [mEh/K]
    Vibrational Cp          0.000 [cal/(mol K)]        0.000 [J/(mol K)]       0.00000000 [mEh/K]
  Total Cp                  6.955 [cal/(mol K)]       29.101 [J/(mol K)]       0.01108384 [mEh/K]
  Correction Cp             0.000 [cal/(mol K)]        0.000 [J/(mol K)]       0.00000000 [mEh/K]

  ==> Thermochemistry Energy Analysis <==

  Raw electronic energy, E0
  Total E0, Electronic energy at well bottom at 0 [K]                 -100.43046173 [Eh]

  Zero-point energy, ZPE_vib = Sum_i nu_i / 2
    Electronic ZPE          0.000 [kcal/mol]        0.000 [kJ/mol]       0.00000000 [Eh]
    Translational ZPE       0.000 [kcal/mol]        0.000 [kJ/mol]       0.00000000 [Eh]
    Rotational ZPE          0.000 [kcal/mol]        0.000 [kJ/mol]       0.00000000 [Eh]
    Vibrational ZPE         5.856 [kcal/mol]       24.501 [kJ/mol]       0.00933183 [Eh]        2048.100 [cm^-1]
  Correction ZPE            5.856 [kcal/mol]       24.501 [kJ/mol]       0.00933183 [Eh]        2048.100 [cm^-1]
  Total ZPE, Electronic energy at 0 [K]                               -100.42112990 [Eh]

  Thermal Energy, E (includes ZPE)
    Electronic E            0.000 [kcal/mol]        0.000 [kJ/mol]       0.00000000 [Eh]
    Translational E         0.889 [kcal/mol]        3.718 [kJ/mol]       0.00141628 [Eh]
    Rotational E            0.592 [kcal/mol]        2.479 [kJ/mol]       0.00094418 [Eh]
    Vibrational E           5.856 [kcal/mol]       24.501 [kJ/mol]       0.00933183 [Eh]
  Correction E              7.337 [kcal/mol]       30.698 [kJ/mol]       0.01169229 [Eh]
  Total E, Electronic energy at  298.15 [K]                           -100.41876944 [Eh]

  Enthalpy, H_trans = E_trans + k_B * T
    Electronic H            0.000 [kcal/mol]        0.000 [kJ/mol]       0.00000000 [Eh]
    Translational H         1.481 [kcal/mol]        6.197 [kJ/mol]       0.00236046 [Eh]
    Rotational H            0.592 [kcal/mol]        2.479 [kJ/mol]       0.00094418 [Eh]
    Vibrational H           5.856 [kcal/mol]       24.501 [kJ/mol]       0.00933183 [Eh]
  Correction H              7.930 [kcal/mol]       33.177 [kJ/mol]       0.01263648 [Eh]
  Total H, Enthalpy at  298.15 [K]                                    -100.41782525 [Eh]

  Gibbs free energy, G = H - T * S
    Electronic G            0.000 [kcal/mol]        0.000 [kJ/mol]       0.00000000 [Eh]
    Translational G        -8.931 [kcal/mol]      -37.366 [kJ/mol]      -0.01423187 [Eh]
    Rotational G           -1.367 [kcal/mol]       -5.718 [kJ/mol]      -0.00217791 [Eh]
    Vibrational G           5.856 [kcal/mol]       24.501 [kJ/mol]       0.00933183 [Eh]
  Correction G             -4.441 [kcal/mol]      -18.583 [kJ/mol]      -0.00707795 [Eh]
  Total G, Free enthalpy at  298.15 [K]                               -100.43753968 [Eh]

*** Psi4 exiting successfully. Buy a developer a beer!
