                               Psi4 1.3.2 release

  ==> Input File <==

--------------------------------------------------------------------------
memory 144 GB

molecule {
0 1
N 0.0000000000 0.0000000000 0.0000000000
H 0.0000000000 0.0000000000 1.0535284100
O 1.1513717966 0.0000000000 -0.3743228181
}

set dynamic_level 1
set basis aug-cc-pV(D+d)Z

optimize("wB97M-V")
frequencies("wB97M-V")
--------------------------------------------------------------------------

    Molecular point group: cs
  Charge       = 0
  Multiplicity = 1
  Basis Set: AUG-CC-PV(D+D)Z
    Blend: AUG-CC-PV(D+D)Z
  Basis Set: (AUG-CC-PV(D+D)Z AUX)
    Blend: AUG-CC-PVDZ-JKFIT
  @DF-RKS Final Energy:  -130.46091652103073
    Total Energy =                       -130.4609165210307538
    Molecular point group: cs
  Basis Set: AUG-CC-PV(D+D)Z
    Blend: AUG-CC-PV(D+D)Z
  Basis Set: (AUG-CC-PV(D+D)Z AUX)
    Blend: AUG-CC-PVDZ-JKFIT
  @DF-RKS Final Energy:  -130.46093835219099
    Total Energy =                       -130.4609383521909933
  Basis Set: AUG-CC-PV(D+D)Z
    Blend: AUG-CC-PV(D+D)Z
  Basis Set: (AUG-CC-PV(D+D)Z AUX)
    Blend: AUG-CC-PVDZ-JKFIT
  @DF-RKS Final Energy:  -130.46089209917443
    Total Energy =                       -130.4608920991744299
  Basis Set: AUG-CC-PV(D+D)Z
    Blend: AUG-CC-PV(D+D)Z
  Basis Set: (AUG-CC-PV(D+D)Z AUX)
    Blend: AUG-CC-PVDZ-JKFIT
  @DF-RKS Final Energy:  -130.46093425059962
    Total Energy =                       -130.4609342505996210
  @DF-RKS Final Energy:  -130.46089333373880
    Total Energy =                       -130.4608933337388237
  @DF-RKS Final Energy:  -130.46090385821674
    Total Energy =                       -130.4609038582167386
  @DF-RKS Final Energy:  -130.46092351362057
    Total Energy =                       -130.4609235136205712
  @DF-RKS Final Energy:  -130.46104683049384
    Total Energy =                       -130.4610468304938422
  @DF-RKS Final Energy:  -130.46105172665284
    Total Energy =                       -130.4610517266528689
  @DF-RKS Final Energy:  -130.46103922030346
    Total Energy =                       -130.4610392203034621
  @DF-RKS Final Energy:  -130.46104632223017
    Total Energy =                       -130.4610463222301746
  @DF-RKS Final Energy:  -130.46104204471919
    Total Energy =                       -130.4610420447191643
  @DF-RKS Final Energy:  -130.46103597526141
    Total Energy =                       -130.4610359752614102
  @DF-RKS Final Energy:  -130.46105213863049
    Total Energy =                       -130.4610521386304924
  @DF-RKS Final Energy:  -130.46105480466034
    Total Energy =                       -130.4610548046603355
  @DF-RKS Final Energy:  -130.46104998769022
    Total Energy =                       -130.4610499876902168
  @DF-RKS Final Energy:  -130.46105685865115
    Total Energy =                       -130.4610568586511476
  @DF-RKS Final Energy:  -130.46105539720551
    Total Energy =                       -130.4610553972055129
  @DF-RKS Final Energy:  -130.46104905689447
    Total Energy =                       -130.4610490568944670
  @DF-RKS Final Energy:  -130.46105573476140
    Total Energy =                       -130.4610557347614019
  **** Optimization is complete! (in 4 steps) ****
    Final optimized geometry and variables:
  @DF-RKS Final Energy:  -130.46106235607664
    Total Energy =                       -130.4610623560766669
  @DF-RKS Final Energy:  -130.46106102205746
    Total Energy =                       -130.4610610220574927
  @DF-RKS Final Energy:  -130.46106093923891
    Total Energy =                       -130.4610609392389051
  @DF-RKS Final Energy:  -130.46105968590479
    Total Energy =                       -130.4610596859047860
  @DF-RKS Final Energy:  -130.46105983461464
    Total Energy =                       -130.4610598346146162
  @DF-RKS Final Energy:  -130.46105942969919
    Total Energy =                       -130.4610594296991906
  @DF-RKS Final Energy:  -130.46105980871522
    Total Energy =                       -130.4610598087151914
  @DF-RKS Final Energy:  -130.46106235607672
    Total Energy =                       -130.4610623560766953
  @DF-RKS Final Energy:  -130.46106102205781
    Total Energy =                       -130.4610610220577769
  @DF-RKS Final Energy:  -130.46106093923899
    Total Energy =                       -130.4610609392389904
  @DF-RKS Final Energy:  -130.46105968590498
    Total Energy =                       -130.4610596859050133
  @DF-RKS Final Energy:  -130.46105983461476
    Total Energy =                       -130.4610598346147583
  @DF-RKS Final Energy:  -130.46105942969945
    Total Energy =                       -130.4610594296994464
  @DF-RKS Final Energy:  -130.46105980871533
    Total Energy =                       -130.4610598087153051
  @DF-RKS Final Energy:  -130.46105856839881
    Total Energy =                       -130.4610585683988120
  @DF-RKS Final Energy:  -130.46105850449149
    Total Energy =                       -130.4610585044914899
  Basis Set: AUG-CC-PV(D+D)Z
    Blend: AUG-CC-PV(D+D)Z
  Basis Set: (AUG-CC-PV(D+D)Z AUX)
    Blend: AUG-CC-PVDZ-JKFIT
  @DF-RKS Final Energy:  -130.46105795301008
    Total Energy =                       -130.4610579530100836
  Basis Set: AUG-CC-PV(D+D)Z
    Blend: AUG-CC-PV(D+D)Z
  Basis Set: (AUG-CC-PV(D+D)Z AUX)
    Blend: AUG-CC-PVDZ-JKFIT
  @DF-RKS Final Energy:  -130.46105765136005
    Total Energy =                       -130.4610576513600506
  Multiplicity = 1
  Basis Set: AUG-CC-PV(D+D)Z
    Blend: AUG-CC-PV(D+D)Z
  Basis Set: (AUG-CC-PV(D+D)Z AUX)
    Blend: AUG-CC-PVDZ-JKFIT
  @DF-RKS Final Energy:  -130.46106019662477
    Total Energy =                       -130.4610601966247998
    Molecular point group: cs

    Geometry (in Angstrom), charge = 0, multiplicity = 1:

       Center              X                  Y                   Z               Mass
    ------------   -----------------  -----------------  -----------------  -----------------
         N            0.589593652564     0.155906597993     0.000000000000    14.003074004430
         H            0.591464070812     1.217195798419     0.000000000000     1.007825032230
         O           -0.553439393467    -0.213186009763     0.000000000000    15.994914619570

  Charge       = 0
  Multiplicity = 1
  Basis Set: AUG-CC-PV(D+D)Z
    Blend: AUG-CC-PV(D+D)Z
  Basis Set: (AUG-CC-PV(D+D)Z AUX)
    Blend: AUG-CC-PVDZ-JKFIT

    Orbital Energies [Eh]
    ---------------------

    Doubly Occupied:

       1Ap   -19.445613     2Ap   -14.658252     3Ap    -1.320043
       4Ap    -0.854073     5Ap    -0.653371     1App   -0.577490
       6Ap    -0.572827     7Ap    -0.356034

  @DF-RKS Final Energy:  -130.46105966894945

   => Energetics <=

    Nuclear Repulsion Energy =             30.4722933051970699
    One-Electron Energy =                -237.8840232786838840
    Two-Electron Energy =                  88.2312847004627088
    DFT Exchange-Correlation Energy =     -11.3475550993878116
    Empirical Dispersion Energy =           0.0000000000000000
    VV10 Nonlocal Energy =                  0.0669407034624694
    Total Energy =                       -130.4610596689494457

  Dipole Moment: [D]
     X:     0.4475      Y:     1.6486      Z:     0.0000     Total:     1.7083

  Vibration                       7                   8                   9
  Freq [cm^-1]                1567.3357           1724.6362           2958.0116
  Irrep                           Ap                  Ap                  Ap
  Reduced mass [u]              1.2011             10.5408              1.0756
  Force const [mDyne/A]         1.7385             18.4723              5.5452

  ==> Thermochemistry Components <==

  Entropy, S
    Electronic S            0.000 [cal/(mol K)]        0.000 [J/(mol K)]       0.00000000 [mEh/K] (multiplicity = 1)
    Translational S        36.227 [cal/(mol K)]      151.576 [J/(mol K)]       0.05773217 [mEh/K] (mol. weight = 31.0058 [u], P = 101325.00 [Pa])
    Rotational S           16.476 [cal/(mol K)]       68.934 [J/(mol K)]       0.02625543 [mEh/K] (symmetry no. = 1)
    Vibrational S           0.013 [cal/(mol K)]        0.056 [J/(mol K)]       0.00002129 [mEh/K]
  Total S                  52.716 [cal/(mol K)]      220.565 [J/(mol K)]       0.08400889 [mEh/K]
  Correction S              0.000 [cal/(mol K)]        0.000 [J/(mol K)]       0.00000000 [mEh/K]

  Constant volume heat capacity, Cv
    Electronic Cv           0.000 [cal/(mol K)]        0.000 [J/(mol K)]       0.00000000 [mEh/K]
    Translational Cv        2.981 [cal/(mol K)]       12.472 [J/(mol K)]       0.00475022 [mEh/K]
    Rotational Cv           2.981 [cal/(mol K)]       12.472 [J/(mol K)]       0.00475022 [mEh/K]
    Vibrational Cv          0.093 [cal/(mol K)]        0.388 [J/(mol K)]       0.00014786 [mEh/K]
  Total Cv                  6.054 [cal/(mol K)]       25.332 [J/(mol K)]       0.00964829 [mEh/K]
  Correction Cv             0.000 [cal/(mol K)]        0.000 [J/(mol K)]       0.00000000 [mEh/K]

  Constant pressure heat capacity, Cp
    Electronic Cp           0.000 [cal/(mol K)]        0.000 [J/(mol K)]       0.00000000 [mEh/K]
    Translational Cp        4.968 [cal/(mol K)]       20.786 [J/(mol K)]       0.00791703 [mEh/K]
    Rotational Cp           2.981 [cal/(mol K)]       12.472 [J/(mol K)]       0.00475022 [mEh/K]
    Vibrational Cp          0.093 [cal/(mol K)]        0.388 [J/(mol K)]       0.00014786 [mEh/K]
  Total Cp                  8.042 [cal/(mol K)]       33.646 [J/(mol K)]       0.01281511 [mEh/K]
  Correction Cp             0.000 [cal/(mol K)]        0.000 [J/(mol K)]       0.00000000 [mEh/K]

  ==> Thermochemistry Energy Analysis <==

  Raw electronic energy, E0
  Total E0, Electronic energy at well bottom at 0 [K]                 -130.46106236 [Eh]

  Zero-point energy, ZPE_vib = Sum_i nu_i / 2
    Electronic ZPE          0.000 [kcal/mol]        0.000 [kJ/mol]       0.00000000 [Eh]
    Translational ZPE       0.000 [kcal/mol]        0.000 [kJ/mol]       0.00000000 [Eh]
    Rotational ZPE          0.000 [kcal/mol]        0.000 [kJ/mol]       0.00000000 [Eh]
    Vibrational ZPE         8.935 [kcal/mol]       37.383 [kJ/mol]       0.01423851 [Eh]        3124.992 [cm^-1]
  Correction ZPE            8.935 [kcal/mol]       37.383 [kJ/mol]       0.01423851 [Eh]        3124.992 [cm^-1]
  Total ZPE, Electronic energy at 0 [K]                               -130.44682385 [Eh]

  Thermal Energy, E (includes ZPE)
    Electronic E            0.000 [kcal/mol]        0.000 [kJ/mol]       0.00000000 [Eh]
    Translational E         0.889 [kcal/mol]        3.718 [kJ/mol]       0.00141628 [Eh]
    Rotational E            0.889 [kcal/mol]        3.718 [kJ/mol]       0.00141628 [Eh]
    Vibrational E           8.938 [kcal/mol]       37.398 [kJ/mol]       0.01424414 [Eh]
  Correction E             10.716 [kcal/mol]       44.835 [kJ/mol]       0.01707669 [Eh]
  Total E, Electronic energy at  298.15 [K]                           -130.44398567 [Eh]

  Enthalpy, H_trans = E_trans + k_B * T
    Electronic H            0.000 [kcal/mol]        0.000 [kJ/mol]       0.00000000 [Eh]
    Translational H         1.481 [kcal/mol]        6.197 [kJ/mol]       0.00236046 [Eh]
    Rotational H            0.889 [kcal/mol]        3.718 [kJ/mol]       0.00141628 [Eh]
    Vibrational H           8.938 [kcal/mol]       37.398 [kJ/mol]       0.01424414 [Eh]
  Correction H             11.308 [kcal/mol]       47.314 [kJ/mol]       0.01802088 [Eh]
  Total H, Enthalpy at  298.15 [K]                                    -130.44304148 [Eh]

  Gibbs free energy, G = H - T * S
    Electronic G            0.000 [kcal/mol]        0.000 [kJ/mol]       0.00000000 [Eh]
    Translational G        -9.320 [kcal/mol]      -38.995 [kJ/mol]      -0.01485238 [Eh]
    Rotational G           -4.023 [kcal/mol]      -16.834 [kJ/mol]      -0.00641178 [Eh]
    Vibrational G           8.934 [kcal/mol]       37.381 [kJ/mol]       0.01423779 [Eh]
  Correction G             -4.409 [kcal/mol]      -18.448 [kJ/mol]      -0.00702637 [Eh]
  Total G, Free enthalpy at  298.15 [K]                               -130.46808873 [Eh]

*** Psi4 exiting successfully. Buy a developer a beer!
