                               Psi4 1.3.2 release

  ==> Input File <==

--------------------------------------------------------------------------
memory 144 GB

molecule {
0 1
O 0.0000000000 0.0000000000 0.0000000000
H 0.0000000000 0.0000000000 0.9638997500
Cl 1.6530447720 0.0000000000 -0.3711121967
}

set dynamic_level 1
set basis aug-cc-pV(D+d)Z

optimize("wB97M-V")
frequencies("wB97M-V")
--------------------------------------------------------------------------

    Molecular point group: cs
  Charge       = 0
  Multiplicity = 1
  Basis Set: AUG-CC-PV(D+D)Z
    Blend: AUG-CC-PV(D+D)Z
  Basis Set: (AUG-CC-PV(D+D)Z AUX)
    Blend: AUG-CC-PVDZ-JKFIT
  @DF-RKS Final Energy:  -535.93439084893578
    Total Energy =                       -535.9343908489356636
    Molecular point group: cs
  Basis Set: AUG-CC-PV(D+D)Z
    Blend: AUG-CC-PV(D+D)Z
  Basis Set: (AUG-CC-PV(D+D)Z AUX)
    Blend: AUG-CC-PVDZ-JKFIT
  @DF-RKS Final Energy:  -535.93438930377681
    Total Energy =                       -535.9343893037768112
  Basis Set: AUG-CC-PV(D+D)Z
    Blend: AUG-CC-PV(D+D)Z
  Basis Set: (AUG-CC-PV(D+D)Z AUX)
    Blend: AUG-CC-PVDZ-JKFIT
  @DF-RKS Final Energy:  -535.93439177214873
    Total Energy =                       -535.9343917721487287
  Basis Set: AUG-CC-PV(D+D)Z
    Blend: AUG-CC-PV(D+D)Z
  Basis Set: (AUG-CC-PV(D+D)Z AUX)
    Blend: AUG-CC-PVDZ-JKFIT
  @DF-RKS Final Energy:  -535.93439898865506
    Total Energy =                       -535.9343989886550617
  @DF-RKS Final Energy:  -535.93437314731841
    Total Energy =                       -535.9343731473184107
  @DF-RKS Final Energy:  -535.93436577884574
    Total Energy =                       -535.9343657788457449
  @DF-RKS Final Energy:  -535.93440988124894
    Total Energy =                       -535.9344098812489392
  @DF-RKS Final Energy:  -535.93444519257025
    Total Energy =                       -535.9344451925702515
  @DF-RKS Final Energy:  -535.93444438949882
    Total Energy =                       -535.9344443894987080
  @DF-RKS Final Energy:  -535.93444537732046
    Total Energy =                       -535.9344453773204577
  @DF-RKS Final Energy:  -535.93444338876452
    Total Energy =                       -535.9344433887645209
  @DF-RKS Final Energy:  -535.93443784309557
    Total Energy =                       -535.9344378430955658
  @DF-RKS Final Energy:  -535.93444421356628
    Total Energy =                       -535.9344442135663940
  @DF-RKS Final Energy:  -535.93444014792760
    Total Energy =                       -535.9344401479276030
  @DF-RKS Final Energy:  -535.93444887013789
    Total Energy =                       -535.9344488701377713
  @DF-RKS Final Energy:  -535.93444833242063
    Total Energy =                       -535.9344483324206294
  @DF-RKS Final Energy:  -535.93444879051469
    Total Energy =                       -535.9344487905146934
  @DF-RKS Final Energy:  -535.93444415345573
    Total Energy =                       -535.9344441534557291
  @DF-RKS Final Energy:  -535.93444441200575
    Total Energy =                       -535.9344444120056323
  @DF-RKS Final Energy:  -535.93444608998198
    Total Energy =                       -535.9344460899819751
  **** Optimization is complete! (in 3 steps) ****
    Final optimized geometry and variables:
  @DF-RKS Final Energy:  -535.93444887013732
    Total Energy =                       -535.9344488701374303
  @DF-RKS Final Energy:  -535.93444833242143
    Total Energy =                       -535.9344483324214252
  @DF-RKS Final Energy:  -535.93444879030619
    Total Energy =                       -535.9344487903061918
  @DF-RKS Final Energy:  -535.93444415338706
    Total Energy =                       -535.9344441533869485
  @DF-RKS Final Energy:  -535.93444441190536
    Total Energy =                       -535.9344444119052469
  @DF-RKS Final Energy:  -535.93444609008088
    Total Energy =                       -535.9344460900808826
  @DF-RKS Final Energy:  -535.93444566519793
    Total Energy =                       -535.9344456651979272
  @DF-RKS Final Energy:  -535.93444887013743
    Total Energy =                       -535.9344488701374303
  @DF-RKS Final Energy:  -535.93444833242165
    Total Energy =                       -535.9344483324216526
  @DF-RKS Final Energy:  -535.93444879030676
    Total Energy =                       -535.9344487903067602
  @DF-RKS Final Energy:  -535.93444415338672
    Total Energy =                       -535.9344441533866075
  @DF-RKS Final Energy:  -535.93444441190513
    Total Energy =                       -535.9344444119052469
  @DF-RKS Final Energy:  -535.93444609008066
    Total Energy =                       -535.9344460900806553
  @DF-RKS Final Energy:  -535.93444566519747
    Total Energy =                       -535.9344456651974724
  @DF-RKS Final Energy:  -535.93444433132504
    Total Energy =                       -535.9344443313250395
  @DF-RKS Final Energy:  -535.93444362217758
    Total Energy =                       -535.9344436221774686
  Basis Set: AUG-CC-PV(D+D)Z
    Blend: AUG-CC-PV(D+D)Z
  Basis Set: (AUG-CC-PV(D+D)Z AUX)
    Blend: AUG-CC-PVDZ-JKFIT
  @DF-RKS Final Energy:  -535.93444581967049
    Total Energy =                       -535.9344458196703727
  Basis Set: AUG-CC-PV(D+D)Z
    Blend: AUG-CC-PV(D+D)Z
  Basis Set: (AUG-CC-PV(D+D)Z AUX)
    Blend: AUG-CC-PVDZ-JKFIT
  @DF-RKS Final Energy:  -535.93444577922821
    Total Energy =                       -535.9344457792283265
  Multiplicity = 1
  Basis Set: AUG-CC-PV(D+D)Z
    Blend: AUG-CC-PV(D+D)Z
  Basis Set: (AUG-CC-PV(D+D)Z AUX)
    Blend: AUG-CC-PVDZ-JKFIT
  @DF-RKS Final Energy:  -535.93444711421932
    Total Energy =                       -535.9344471142193242
    Molecular point group: cs

    Geometry (in Angstrom), charge = 0, multiplicity = 1:

       Center              X                  Y                   Z               Mass
    ------------   -----------------  -----------------  -----------------  -----------------
         O            1.113655837429     0.235340099176     0.000000000000    15.994914619570
         H            1.121579558928     1.204470203691     0.000000000000     1.007825032230
         CL          -0.541715971143    -0.142359260683     0.000000000000    34.968852682000

  Charge       = 0
  Multiplicity = 1
  Basis Set: AUG-CC-PV(D+D)Z
    Blend: AUG-CC-PV(D+D)Z
  Basis Set: (AUG-CC-PV(D+D)Z AUX)
    Blend: AUG-CC-PVDZ-JKFIT

    Orbital Energies [Eh]
    ---------------------

    Doubly Occupied:

       1Ap  -101.935634     2Ap   -19.433827     3Ap    -9.696134
       4Ap    -7.404742     5Ap    -7.390191     1App   -7.389797
       6Ap    -1.207623     7Ap    -0.928244     8Ap    -0.645396
       9Ap    -0.554748     2App   -0.526480    10Ap    -0.424428
       3App   -0.391592

  @DF-RKS Final Energy:  -535.93444724425308

   => Energetics <=

    Nuclear Repulsion Energy =             50.9576322340196484
    One-Electron Energy =                -840.2582504090058819
    Two-Electron Energy =                 281.5177988184445894
    DFT Exchange-Correlation Energy =     -28.2603382729353996
    Empirical Dispersion Energy =           0.0000000000000000
    VV10 Nonlocal Energy =                  0.1087103852239516
    Total Energy =                       -535.9344472442530787

  Dipole Moment: [D]
     X:    -0.0295      Y:     1.5402      Z:     0.0000     Total:     1.5404

  Vibration                       7                   8                   9
  Freq [cm^-1]                 781.7231           1266.1371           3802.9467
  Irrep                           Ap                  Ap                  Ap
  Reduced mass [u]             17.2950              1.0736              1.0679
  Force const [mDyne/A]         6.2270              1.0140              9.0999

  ==> Thermochemistry Components <==

  Entropy, S
    Electronic S            0.000 [cal/(mol K)]        0.000 [J/(mol K)]       0.00000000 [mEh/K] (multiplicity = 1)
    Translational S        37.767 [cal/(mol K)]      158.018 [J/(mol K)]       0.06018576 [mEh/K] (mol. weight = 51.9716 [u], P = 101325.00 [Pa])
    Rotational S           18.415 [cal/(mol K)]       77.049 [J/(mol K)]       0.02934624 [mEh/K] (symmetry no. = 1)
    Vibrational S           0.254 [cal/(mol K)]        1.063 [J/(mol K)]       0.00040499 [mEh/K]
  Total S                  56.436 [cal/(mol K)]      236.130 [J/(mol K)]       0.08993699 [mEh/K]
  Correction S              0.000 [cal/(mol K)]        0.000 [J/(mol K)]       0.00000000 [mEh/K]

  Constant volume heat capacity, Cv
    Electronic Cv           0.000 [cal/(mol K)]        0.000 [J/(mol K)]       0.00000000 [mEh/K]
    Translational Cv        2.981 [cal/(mol K)]       12.472 [J/(mol K)]       0.00475022 [mEh/K]
    Rotational Cv           2.981 [cal/(mol K)]       12.472 [J/(mol K)]       0.00475022 [mEh/K]
    Vibrational Cv          0.847 [cal/(mol K)]        3.543 [J/(mol K)]       0.00134949 [mEh/K]
  Total Cv                  6.808 [cal/(mol K)]       28.486 [J/(mol K)]       0.01084993 [mEh/K]
  Correction Cv             0.000 [cal/(mol K)]        0.000 [J/(mol K)]       0.00000000 [mEh/K]

  Constant pressure heat capacity, Cp
    Electronic Cp           0.000 [cal/(mol K)]        0.000 [J/(mol K)]       0.00000000 [mEh/K]
    Translational Cp        4.968 [cal/(mol K)]       20.786 [J/(mol K)]       0.00791703 [mEh/K]
    Rotational Cp           2.981 [cal/(mol K)]       12.472 [J/(mol K)]       0.00475022 [mEh/K]
    Vibrational Cp          0.847 [cal/(mol K)]        3.543 [J/(mol K)]       0.00134949 [mEh/K]
  Total Cp                  8.796 [cal/(mol K)]       36.801 [J/(mol K)]       0.01401674 [mEh/K]
  Correction Cp             0.000 [cal/(mol K)]        0.000 [J/(mol K)]       0.00000000 [mEh/K]

  ==> Thermochemistry Energy Analysis <==

  Raw electronic energy, E0
  Total E0, Electronic energy at well bottom at 0 [K]                 -535.93444887 [Eh]

  Zero-point energy, ZPE_vib = Sum_i nu_i / 2
    Electronic ZPE          0.000 [kcal/mol]        0.000 [kJ/mol]       0.00000000 [Eh]
    Translational ZPE       0.000 [kcal/mol]        0.000 [kJ/mol]       0.00000000 [Eh]
    Rotational ZPE          0.000 [kcal/mol]        0.000 [kJ/mol]       0.00000000 [Eh]
    Vibrational ZPE         8.364 [kcal/mol]       34.996 [kJ/mol]       0.01332912 [Eh]        2925.403 [cm^-1]
  Correction ZPE            8.364 [kcal/mol]       34.996 [kJ/mol]       0.01332912 [Eh]        2925.403 [cm^-1]
  Total ZPE, Electronic energy at 0 [K]                               -535.92111975 [Eh]

  Thermal Energy, E (includes ZPE)
    Electronic E            0.000 [kcal/mol]        0.000 [kJ/mol]       0.00000000 [Eh]
    Translational E         0.889 [kcal/mol]        3.718 [kJ/mol]       0.00141628 [Eh]
    Rotational E            0.889 [kcal/mol]        3.718 [kJ/mol]       0.00141628 [Eh]
    Vibrational E           8.425 [kcal/mol]       35.249 [kJ/mol]       0.01342580 [Eh]
  Correction E             10.202 [kcal/mol]       42.686 [kJ/mol]       0.01625835 [Eh]
  Total E, Electronic energy at  298.15 [K]                           -535.91819052 [Eh]

  Enthalpy, H_trans = E_trans + k_B * T
    Electronic H            0.000 [kcal/mol]        0.000 [kJ/mol]       0.00000000 [Eh]
    Translational H         1.481 [kcal/mol]        6.197 [kJ/mol]       0.00236046 [Eh]
    Rotational H            0.889 [kcal/mol]        3.718 [kJ/mol]       0.00141628 [Eh]
    Vibrational H           8.425 [kcal/mol]       35.249 [kJ/mol]       0.01342580 [Eh]
  Correction H             10.795 [kcal/mol]       45.165 [kJ/mol]       0.01720254 [Eh]
  Total H, Enthalpy at  298.15 [K]                                    -535.91724633 [Eh]

  Gibbs free energy, G = H - T * S
    Electronic G            0.000 [kcal/mol]        0.000 [kJ/mol]       0.00000000 [Eh]
    Translational G        -9.779 [kcal/mol]      -40.916 [kJ/mol]      -0.01558392 [Eh]
    Rotational G           -4.602 [kcal/mol]      -19.254 [kJ/mol]      -0.00733330 [Eh]
    Vibrational G           8.349 [kcal/mol]       34.932 [kJ/mol]       0.01330505 [Eh]
  Correction G             -6.032 [kcal/mol]      -25.237 [kJ/mol]      -0.00961218 [Eh]
  Total G, Free enthalpy at  298.15 [K]                               -535.94406105 [Eh]

*** Psi4 exiting successfully. Buy a developer a beer!
