                               Psi4 1.3.2 release

  ==> Input File <==

--------------------------------------------------------------------------
memory 144 GB

molecule {
0 1
N 0.0000000000 0.0000000000 0.0000000000
N 0.0000000000 0.0000000000 1.1003000000
}

set dynamic_level 1
set basis aug-cc-pV(D+d)Z

optimize("wB97M-V")
frequencies("wB97M-V")
--------------------------------------------------------------------------

    Molecular point group: d2h
  Charge       = 0
  Multiplicity = 1
  Basis Set: AUG-CC-PV(D+D)Z
    Blend: AUG-CC-PV(D+D)Z
  Basis Set: (AUG-CC-PV(D+D)Z AUX)
    Blend: AUG-CC-PVDZ-JKFIT
  @DF-RKS Final Energy:  -109.52319115880391
    Total Energy =                       -109.5231911588039111
    Molecular point group: d2h
  Basis Set: AUG-CC-PV(D+D)Z
    Blend: AUG-CC-PV(D+D)Z
  Basis Set: (AUG-CC-PV(D+D)Z AUX)
    Blend: AUG-CC-PVDZ-JKFIT
  @DF-RKS Final Energy:  -109.52319896333235
    Total Energy =                       -109.5231989633323479
  Basis Set: AUG-CC-PV(D+D)Z
    Blend: AUG-CC-PV(D+D)Z
  Basis Set: (AUG-CC-PV(D+D)Z AUX)
    Blend: AUG-CC-PVDZ-JKFIT
  @DF-RKS Final Energy:  -109.52317744126995
    Total Energy =                       -109.5231774412699366
  Basis Set: AUG-CC-PV(D+D)Z
    Blend: AUG-CC-PV(D+D)Z
  Basis Set: (AUG-CC-PV(D+D)Z AUX)
    Blend: AUG-CC-PVDZ-JKFIT
  @DF-RKS Final Energy:  -109.52320093397161
    Total Energy =                       -109.5232009339716086
  @DF-RKS Final Energy:  -109.52319872977770
    Total Energy =                       -109.5231987297777039
  @DF-RKS Final Energy:  -109.52319729570381
    Total Energy =                       -109.5231972957038096
  @DF-RKS Final Energy:  -109.52320097651311
    Total Energy =                       -109.5232009765130954
  @DF-RKS Final Energy:  -109.52319806365301
    Total Energy =                       -109.5231980636530125
  @DF-RKS Final Energy:  -109.52319805334916
    Total Energy =                       -109.5231980533491623
  **** Optimization is complete! (in 3 steps) ****
    Final optimized geometry and variables:
  @DF-RKS Final Energy:  -109.52320097651304
    Total Energy =                       -109.5232009765130385
  @DF-RKS Final Energy:  -109.52319806365297
    Total Energy =                       -109.5231980636529698
  Basis Set: AUG-CC-PV(D+D)Z
    Blend: AUG-CC-PV(D+D)Z
  Basis Set: (AUG-CC-PV(D+D)Z AUX)
    Blend: AUG-CC-PVDZ-JKFIT
  @DF-RKS Final Energy:  -109.52319805334928
    Total Energy =                       -109.5231980533492759
  Basis Set: AUG-CC-PV(D+D)Z
    Blend: AUG-CC-PV(D+D)Z
  Basis Set: (AUG-CC-PV(D+D)Z AUX)
    Blend: AUG-CC-PVDZ-JKFIT
  @DF-RKS Final Energy:  -109.52320097651302
    Total Energy =                       -109.5232009765130243
  Multiplicity = 1
  Basis Set: AUG-CC-PV(D+D)Z
    Blend: AUG-CC-PV(D+D)Z
  Basis Set: (AUG-CC-PV(D+D)Z AUX)
    Blend: AUG-CC-PVDZ-JKFIT
  @DF-RKS Final Energy:  -109.52319806365298
    Total Energy =                       -109.5231980636529840
    Molecular point group: d2h

    Geometry (in Angstrom), charge = 0, multiplicity = 1:

       Center              X                  Y                   Z               Mass
    ------------   -----------------  -----------------  -----------------  -----------------
         N            0.000000000000     0.000000000000    -0.550565096324    14.003074004430
         N            0.000000000000     0.000000000000     0.550565096324    14.003074004430

  Charge       = 0
  Multiplicity = 1
  Basis Set: AUG-CC-PV(D+D)Z
    Blend: AUG-CC-PV(D+D)Z
  Basis Set: (AUG-CC-PV(D+D)Z AUX)
    Blend: AUG-CC-PVDZ-JKFIT

    Orbital Energies [Eh]
    ---------------------

    Doubly Occupied:

       1Ag   -14.635217     1B1u  -14.633656     2Ag    -1.258984
       2B1u   -0.673951     1B3u   -0.573538     1B2u   -0.573538
       3Ag    -0.544199

  @DF-RKS Final Energy:  -109.52319805334913

   => Energetics <=

    Nuclear Repulsion Energy =             23.5482447906193038
    One-Electron Energy =                -194.1619335124000258
    Two-Electron Energy =                  70.8979112651174574
    DFT Exchange-Correlation Energy =      -9.8663499649612891
    Empirical Dispersion Energy =           0.0000000000000000
    VV10 Nonlocal Energy =                  0.0589293682754267
    Total Energy =                       -109.5231980533491338

  Dipole Moment: [D]
     X:     0.0000      Y:     0.0000      Z:    -0.0000     Total:     0.0000

  Vibration                       6
  Freq [cm^-1]                2483.6638
  Irrep                           Ag
  Reduced mass [u]             14.0031
  Force const [mDyne/A]        50.8931

  ==> Thermochemistry Components <==

  Entropy, S
    Electronic S            0.000 [cal/(mol K)]        0.000 [J/(mol K)]       0.00000000 [mEh/K] (multiplicity = 1)
    Translational S        35.924 [cal/(mol K)]      150.307 [J/(mol K)]       0.05724883 [mEh/K] (mol. weight = 28.0061 [u], P = 101325.00 [Pa])
    Rotational S            9.850 [cal/(mol K)]       41.210 [J/(mol K)]       0.01569621 [mEh/K] (symmetry no. = 2)
    Vibrational S           0.000 [cal/(mol K)]        0.001 [J/(mol K)]       0.00000026 [mEh/K]
  Total S                  45.774 [cal/(mol K)]      191.518 [J/(mol K)]       0.07294529 [mEh/K]
  Correction S              0.000 [cal/(mol K)]        0.000 [J/(mol K)]       0.00000000 [mEh/K]

  Constant volume heat capacity, Cv
    Electronic Cv           0.000 [cal/(mol K)]        0.000 [J/(mol K)]       0.00000000 [mEh/K]
    Translational Cv        2.981 [cal/(mol K)]       12.472 [J/(mol K)]       0.00475022 [mEh/K]
    Rotational Cv           1.987 [cal/(mol K)]        8.314 [J/(mol K)]       0.00316681 [mEh/K]
    Vibrational Cv          0.002 [cal/(mol K)]        0.007 [J/(mol K)]       0.00000284 [mEh/K]
  Total Cv                  4.970 [cal/(mol K)]       20.794 [J/(mol K)]       0.00791986 [mEh/K]
  Correction Cv             0.000 [cal/(mol K)]        0.000 [J/(mol K)]       0.00000000 [mEh/K]

  Constant pressure heat capacity, Cp
    Electronic Cp           0.000 [cal/(mol K)]        0.000 [J/(mol K)]       0.00000000 [mEh/K]
    Translational Cp        4.968 [cal/(mol K)]       20.786 [J/(mol K)]       0.00791703 [mEh/K]
    Rotational Cp           1.987 [cal/(mol K)]        8.314 [J/(mol K)]       0.00316681 [mEh/K]
    Vibrational Cp          0.002 [cal/(mol K)]        0.007 [J/(mol K)]       0.00000284 [mEh/K]
  Total Cp                  6.957 [cal/(mol K)]       29.108 [J/(mol K)]       0.01108667 [mEh/K]
  Correction Cp             0.000 [cal/(mol K)]        0.000 [J/(mol K)]       0.00000000 [mEh/K]

  ==> Thermochemistry Energy Analysis <==

  Raw electronic energy, E0
  Total E0, Electronic energy at well bottom at 0 [K]                 -109.52320098 [Eh]

  Zero-point energy, ZPE_vib = Sum_i nu_i / 2
    Electronic ZPE          0.000 [kcal/mol]        0.000 [kJ/mol]       0.00000000 [Eh]
    Translational ZPE       0.000 [kcal/mol]        0.000 [kJ/mol]       0.00000000 [Eh]
    Rotational ZPE          0.000 [kcal/mol]        0.000 [kJ/mol]       0.00000000 [Eh]
    Vibrational ZPE         3.551 [kcal/mol]       14.856 [kJ/mol]       0.00565820 [Eh]        1241.832 [cm^-1]
  Correction ZPE            3.551 [kcal/mol]       14.856 [kJ/mol]       0.00565820 [Eh]        1241.832 [cm^-1]
  Total ZPE, Electronic energy at 0 [K]                               -109.51754277 [Eh]

  Thermal Energy, E (includes ZPE)
    Electronic E            0.000 [kcal/mol]        0.000 [kJ/mol]       0.00000000 [Eh]
    Translational E         0.889 [kcal/mol]        3.718 [kJ/mol]       0.00141628 [Eh]
    Rotational E            0.592 [kcal/mol]        2.479 [kJ/mol]       0.00094418 [Eh]
    Vibrational E           3.551 [kcal/mol]       14.856 [kJ/mol]       0.00565827 [Eh]
  Correction E              5.032 [kcal/mol]       21.053 [kJ/mol]       0.00801873 [Eh]
  Total E, Electronic energy at  298.15 [K]                           -109.51518224 [Eh]

  Enthalpy, H_trans = E_trans + k_B * T
    Electronic H            0.000 [kcal/mol]        0.000 [kJ/mol]       0.00000000 [Eh]
    Translational H         1.481 [kcal/mol]        6.197 [kJ/mol]       0.00236046 [Eh]
    Rotational H            0.592 [kcal/mol]        2.479 [kJ/mol]       0.00094418 [Eh]
    Vibrational H           3.551 [kcal/mol]       14.856 [kJ/mol]       0.00565827 [Eh]
  Correction H              5.624 [kcal/mol]       23.532 [kJ/mol]       0.00896292 [Eh]
  Total H, Enthalpy at  298.15 [K]                                    -109.51423806 [Eh]

  Gibbs free energy, G = H - T * S
    Electronic G            0.000 [kcal/mol]        0.000 [kJ/mol]       0.00000000 [Eh]
    Translational G        -9.230 [kcal/mol]      -38.617 [kJ/mol]      -0.01470828 [Eh]
    Rotational G           -2.344 [kcal/mol]       -9.808 [kJ/mol]      -0.00373564 [Eh]
    Vibrational G           3.551 [kcal/mol]       14.856 [kJ/mol]       0.00565820 [Eh]
  Correction G             -8.023 [kcal/mol]      -33.569 [kJ/mol]      -0.01278572 [Eh]
  Total G, Free enthalpy at  298.15 [K]                               -109.53598670 [Eh]

*** Psi4 exiting successfully. Buy a developer a beer!
