                               Psi4 1.3.2 release

  ==> Input File <==

--------------------------------------------------------------------------
memory 144 GB

molecule {
0 1
N 0.0000000000 0.0000000000 0.0000000000
H 0.0000000000 0.0000000000 1.0124000000
H 0.9722998620 0.0000000000 -0.2821112163
H -0.3756003142 0.8968229622 -0.2821112163
}

set dynamic_level 1
set basis aug-cc-pV(D+d)Z

optimize("wB97M-V")
frequencies("wB97M-V")
--------------------------------------------------------------------------

    Molecular point group: cs
  Charge       = 0
  Multiplicity = 1
  Basis Set: AUG-CC-PV(D+D)Z
    Blend: AUG-CC-PV(D+D)Z
  Basis Set: (AUG-CC-PV(D+D)Z AUX)
    Blend: AUG-CC-PVDZ-JKFIT
  @DF-RKS Final Energy:   -56.53433456507638
    Total Energy =                        -56.5343345650763851
    Molecular point group: cs
  Basis Set: AUG-CC-PV(D+D)Z
    Blend: AUG-CC-PV(D+D)Z
  Basis Set: (AUG-CC-PV(D+D)Z AUX)
    Blend: AUG-CC-PVDZ-JKFIT
  @DF-RKS Final Energy:   -56.53433881055243
    Total Energy =                        -56.5343388105524340
  Basis Set: AUG-CC-PV(D+D)Z
    Blend: AUG-CC-PV(D+D)Z
  Basis Set: (AUG-CC-PV(D+D)Z AUX)
    Blend: AUG-CC-PVDZ-JKFIT
  @DF-RKS Final Energy:   -56.53432475498219
    Total Energy =                        -56.5343247549821939
  Basis Set: AUG-CC-PV(D+D)Z
    Blend: AUG-CC-PV(D+D)Z
  Basis Set: (AUG-CC-PV(D+D)Z AUX)
    Blend: AUG-CC-PVDZ-JKFIT
  @DF-RKS Final Energy:   -56.53433941792132
    Total Energy =                        -56.5343394179213092
  @DF-RKS Final Energy:   -56.53432451200482
    Total Energy =                        -56.5343245120048223
  @DF-RKS Final Energy:   -56.53430265669517
    Total Energy =                        -56.5343026566951607
  @DF-RKS Final Energy:   -56.53435775284961
    Total Energy =                        -56.5343577528496084
  @DF-RKS Final Energy:   -56.53430265152836
    Total Energy =                        -56.5343026515283711
  @DF-RKS Final Energy:   -56.53435775779357
    Total Energy =                        -56.5343577577935719
  @DF-RKS Final Energy:   -56.53440861879913
    Total Energy =                        -56.5344086187991337
  @DF-RKS Final Energy:   -56.53440529408162
    Total Energy =                        -56.5344052940816084
  @DF-RKS Final Energy:   -56.53440653824510
    Total Energy =                        -56.5344065382451006
  @DF-RKS Final Energy:   -56.53440544485768
    Total Energy =                        -56.5344054448576827
  @DF-RKS Final Energy:   -56.53440676918720
    Total Energy =                        -56.5344067691872070
  @DF-RKS Final Energy:   -56.53440745996783
    Total Energy =                        -56.5344074599678308
  @DF-RKS Final Energy:   -56.53440129106474
    Total Energy =                        -56.5344012910647393
  @DF-RKS Final Energy:   -56.53440746064968
    Total Energy =                        -56.5344074606496747
  @DF-RKS Final Energy:   -56.53440129046051
    Total Energy =                        -56.5344012904605009
  @DF-RKS Final Energy:   -56.53440966231395
    Total Energy =                        -56.5344096623139478
  @DF-RKS Final Energy:   -56.53440699850140
    Total Energy =                        -56.5344069985013959
  **** Optimization is complete! (in 3 steps) ****
    Final optimized geometry and variables:
  @DF-RKS Final Energy:   -56.53440541041657
    Total Energy =                        -56.5344054104165679
  @DF-RKS Final Energy:   -56.53440540258856
    Total Energy =                        -56.5344054025885541
  @DF-RKS Final Energy:   -56.53440541034834
    Total Energy =                        -56.5344054103483415
  @DF-RKS Final Energy:   -56.53440540398683
    Total Energy =                        -56.5344054039868311
  @DF-RKS Final Energy:   -56.53440737736427
    Total Energy =                        -56.5344073773642748
  @DF-RKS Final Energy:   -56.53440754880583
    Total Energy =                        -56.5344075488058380
  @DF-RKS Final Energy:   -56.53440177716396
    Total Energy =                        -56.5344017771639571
  @DF-RKS Final Energy:   -56.53440183321196
    Total Energy =                        -56.5344018332119518
  @DF-RKS Final Energy:   -56.53440691958569
    Total Energy =                        -56.5344069195856989
  @DF-RKS Final Energy:   -56.53440704892934
    Total Energy =                        -56.5344070489293458
  @DF-RKS Final Energy:   -56.53440677889787
    Total Energy =                        -56.5344067788978677
  @DF-RKS Final Energy:   -56.53440690478485
    Total Energy =                        -56.5344069047848521
  @DF-RKS Final Energy:   -56.53440219608170
    Total Energy =                        -56.5344021960817003
  @DF-RKS Final Energy:   -56.53440230581791
    Total Energy =                        -56.5344023058179133
  @DF-RKS Final Energy:   -56.53439931849780
    Total Energy =                        -56.5343993184978046
  @DF-RKS Final Energy:   -56.53439930343281
    Total Energy =                        -56.5343993034328065
  Basis Set: AUG-CC-PV(D+D)Z
    Blend: AUG-CC-PV(D+D)Z
  Basis Set: (AUG-CC-PV(D+D)Z AUX)
    Blend: AUG-CC-PVDZ-JKFIT
  @DF-RKS Final Energy:   -56.53440552508596
    Total Energy =                        -56.5344055250859512
  Basis Set: AUG-CC-PV(D+D)Z
    Blend: AUG-CC-PV(D+D)Z
  Basis Set: (AUG-CC-PV(D+D)Z AUX)
    Blend: AUG-CC-PVDZ-JKFIT
  @DF-RKS Final Energy:   -56.53440705223358
    Total Energy =                        -56.5344070522335826
  Multiplicity = 1
  Basis Set: AUG-CC-PV(D+D)Z
    Blend: AUG-CC-PV(D+D)Z
  Basis Set: (AUG-CC-PV(D+D)Z AUX)
    Blend: AUG-CC-PVDZ-JKFIT
  @DF-RKS Final Energy:   -56.53440780112106
    Total Energy =                        -56.5344078011210556
    Molecular point group: c1

    Geometry (in Angstrom), charge = 0, multiplicity = 1:

       Center              X                  Y                   Z               Mass
    ------------   -----------------  -----------------  -----------------  -----------------
         N           -0.043711815161    -0.052530863063    -0.000263895398    14.003074004430
         H            0.563876921995    -0.056332621662     0.815898751024     1.007825032230
         H            0.564795966762    -0.059348627142    -0.814975976181     1.007825032230
         H           -0.521325618164     0.845563459965     0.002743880245     1.007825032230

  Charge       = 0
  Multiplicity = 1
  Basis Set: AUG-CC-PV(D+D)Z
    Blend: AUG-CC-PV(D+D)Z
  Basis Set: (AUG-CC-PV(D+D)Z AUX)
    Blend: AUG-CC-PVDZ-JKFIT

    Orbital Energies [Eh]
    ---------------------

    Doubly Occupied:

       1A    -14.504023     2A     -0.976314     3A     -0.565625
       4A     -0.564473     5A     -0.375962

  @DF-RKS Final Energy:   -56.53440780109339

   => Energetics <=

    Nuclear Repulsion Energy =             11.8982517527343852
    One-Electron Energy =                 -99.4625828753220560
    Two-Electron Energy =                  36.5319271661988836
    DFT Exchange-Correlation Energy =      -5.5438285151001416
    Empirical Dispersion Energy =           0.0000000000000000
    VV10 Nonlocal Energy =                  0.0418246703955303
    Total Energy =                        -56.5344078010934084

  Dipole Moment: [D]
     X:     0.9942      Y:     1.1947      Z:     0.0023     Total:     1.5543

  Vibration                       7                   8                   9
  Freq [cm^-1]                1020.8728           1311.8266           1631.9037
  Irrep                           Ap                 App                  Ap
  Reduced mass [u]              1.1801              1.0557              1.0656
  Force const [mDyne/A]         0.7246              1.0704              1.6719

  Vibration                       10                  11                  12
  Freq [cm^-1]                3495.3341           3541.5688           3623.9175
  Irrep                           Ap                 App                  Ap
  Reduced mass [u]              1.0272              1.1001              1.0897
  Force const [mDyne/A]         7.3937              8.1300              8.4313

  ==> Thermochemistry Components <==

  Entropy, S
    Electronic S            0.000 [cal/(mol K)]        0.000 [J/(mol K)]       0.00000000 [mEh/K] (multiplicity = 1)
    Translational S        34.441 [cal/(mol K)]      144.100 [J/(mol K)]       0.05488488 [mEh/K] (mol. weight = 17.0265 [u], P = 101325.00 [Pa])
    Rotational S           13.641 [cal/(mol K)]       57.075 [J/(mol K)]       0.02173866 [mEh/K] (symmetry no. = 1)
    Vibrational S           0.119 [cal/(mol K)]        0.497 [J/(mol K)]       0.00018914 [mEh/K]
  Total S                  48.201 [cal/(mol K)]      201.672 [J/(mol K)]       0.07681268 [mEh/K]
  Correction S              0.000 [cal/(mol K)]        0.000 [J/(mol K)]       0.00000000 [mEh/K]

  Constant volume heat capacity, Cv
    Electronic Cv           0.000 [cal/(mol K)]        0.000 [J/(mol K)]       0.00000000 [mEh/K]
    Translational Cv        2.981 [cal/(mol K)]       12.472 [J/(mol K)]       0.00475022 [mEh/K]
    Rotational Cv           2.981 [cal/(mol K)]       12.472 [J/(mol K)]       0.00475022 [mEh/K]
    Vibrational Cv          0.544 [cal/(mol K)]        2.277 [J/(mol K)]       0.00086725 [mEh/K]
  Total Cv                  6.506 [cal/(mol K)]       27.220 [J/(mol K)]       0.01036768 [mEh/K]
  Correction Cv             0.000 [cal/(mol K)]        0.000 [J/(mol K)]       0.00000000 [mEh/K]

  Constant pressure heat capacity, Cp
    Electronic Cp           0.000 [cal/(mol K)]        0.000 [J/(mol K)]       0.00000000 [mEh/K]
    Translational Cp        4.968 [cal/(mol K)]       20.786 [J/(mol K)]       0.00791703 [mEh/K]
    Rotational Cp           2.981 [cal/(mol K)]       12.472 [J/(mol K)]       0.00475022 [mEh/K]
    Vibrational Cp          0.544 [cal/(mol K)]        2.277 [J/(mol K)]       0.00086725 [mEh/K]
  Total Cp                  8.493 [cal/(mol K)]       35.535 [J/(mol K)]       0.01353449 [mEh/K]
  Correction Cp             0.000 [cal/(mol K)]        0.000 [J/(mol K)]       0.00000000 [mEh/K]

  ==> Thermochemistry Energy Analysis <==

  Raw electronic energy, E0
  Total E0, Electronic energy at well bottom at 0 [K]                  -56.53440966 [Eh]

  Zero-point energy, ZPE_vib = Sum_i nu_i / 2
    Electronic ZPE          0.000 [kcal/mol]        0.000 [kJ/mol]       0.00000000 [Eh]
    Translational ZPE       0.000 [kcal/mol]        0.000 [kJ/mol]       0.00000000 [Eh]
    Rotational ZPE          0.000 [kcal/mol]        0.000 [kJ/mol]       0.00000000 [Eh]
    Vibrational ZPE        20.908 [kcal/mol]       87.479 [kJ/mol]       0.03331917 [Eh]        7312.712 [cm^-1]
  Correction ZPE           20.908 [kcal/mol]       87.479 [kJ/mol]       0.03331917 [Eh]        7312.712 [cm^-1]
  Total ZPE, Electronic energy at 0 [K]                                -56.50109050 [Eh]

  Thermal Energy, E (includes ZPE)
    Electronic E            0.000 [kcal/mol]        0.000 [kJ/mol]       0.00000000 [Eh]
    Translational E         0.889 [kcal/mol]        3.718 [kJ/mol]       0.00141628 [Eh]
    Rotational E            0.889 [kcal/mol]        3.718 [kJ/mol]       0.00141628 [Eh]
    Vibrational E          20.938 [kcal/mol]       87.604 [kJ/mol]       0.03336664 [Eh]
  Correction E             22.715 [kcal/mol]       95.041 [kJ/mol]       0.03619920 [Eh]
  Total E, Electronic energy at  298.15 [K]                            -56.49821047 [Eh]

  Enthalpy, H_trans = E_trans + k_B * T
    Electronic H            0.000 [kcal/mol]        0.000 [kJ/mol]       0.00000000 [Eh]
    Translational H         1.481 [kcal/mol]        6.197 [kJ/mol]       0.00236046 [Eh]
    Rotational H            0.889 [kcal/mol]        3.718 [kJ/mol]       0.00141628 [Eh]
    Vibrational H          20.938 [kcal/mol]       87.604 [kJ/mol]       0.03336664 [Eh]
  Correction H             23.308 [kcal/mol]       97.520 [kJ/mol]       0.03714338 [Eh]
  Total H, Enthalpy at  298.15 [K]                                     -56.49726628 [Eh]

  Gibbs free energy, G = H - T * S
    Electronic G            0.000 [kcal/mol]        0.000 [kJ/mol]       0.00000000 [Eh]
    Translational G        -8.787 [kcal/mol]      -36.766 [kJ/mol]      -0.01400347 [Eh]
    Rotational G           -3.178 [kcal/mol]      -13.298 [kJ/mol]      -0.00506510 [Eh]
    Vibrational G          20.902 [kcal/mol]       87.456 [kJ/mol]       0.03331025 [Eh]
  Correction G              8.937 [kcal/mol]       37.392 [kJ/mol]       0.01424168 [Eh]
  Total G, Free enthalpy at  298.15 [K]                                -56.52016798 [Eh]

*** Psi4 exiting successfully. Buy a developer a beer!
