                               Psi4 1.3.2 release

  ==> Input File <==

--------------------------------------------------------------------------
memory 144 GB

molecule {
0 1
N 0.0000000000 0.0000000000 0.0000000000
N 0.0000000000 0.0000000000 1.1291000000
O 0.0000000000 -0.0000000000 2.3161000000
}

set dynamic_level 1
set basis aug-cc-pV(D+d)Z

optimize("wB97M-V")
frequencies("wB97M-V")
--------------------------------------------------------------------------

    Molecular point group: c2v
  Charge       = 0
  Multiplicity = 1
  Basis Set: AUG-CC-PV(D+D)Z
    Blend: AUG-CC-PV(D+D)Z
  Basis Set: (AUG-CC-PV(D+D)Z AUX)
    Blend: AUG-CC-PVDZ-JKFIT
  @DF-RKS Final Energy:  -184.64667763139244
    Total Energy =                       -184.6466776313924356
    Molecular point group: c2v
  Basis Set: AUG-CC-PV(D+D)Z
    Blend: AUG-CC-PV(D+D)Z
  Basis Set: (AUG-CC-PV(D+D)Z AUX)
    Blend: AUG-CC-PVDZ-JKFIT
  @DF-RKS Final Energy:  -184.64666646736936
    Total Energy =                       -184.6466664673693572
  Basis Set: AUG-CC-PV(D+D)Z
    Blend: AUG-CC-PV(D+D)Z
  Basis Set: (AUG-CC-PV(D+D)Z AUX)
    Blend: AUG-CC-PVDZ-JKFIT
  @DF-RKS Final Energy:  -184.64668535828571
    Total Energy =                       -184.6466853582857084
  Basis Set: AUG-CC-PV(D+D)Z
    Blend: AUG-CC-PV(D+D)Z
  Basis Set: (AUG-CC-PV(D+D)Z AUX)
    Blend: AUG-CC-PVDZ-JKFIT
  @DF-RKS Final Energy:  -184.64668872404442
    Total Energy =                       -184.6466887240444237
  @DF-RKS Final Energy:  -184.64666292454311
    Total Energy =                       -184.6466629245431079
  @DF-RKS Final Energy:  -184.64670052380572
    Total Energy =                       -184.6467005238056913
  @DF-RKS Final Energy:  -184.64669710011503
    Total Energy =                       -184.6466971001150341
  @DF-RKS Final Energy:  -184.64670044963165
    Total Energy =                       -184.6467004496316804
  @DF-RKS Final Energy:  -184.64670243124323
    Total Energy =                       -184.6467024312432557
  @DF-RKS Final Energy:  -184.64669501706518
    Total Energy =                       -184.6466950170651842
  @DF-RKS Final Energy:  -184.64670241919819
    Total Energy =                       -184.6467024191981920
  @DF-RKS Final Energy:  -184.64670083587009
    Total Energy =                       -184.6467008358701207
  @DF-RKS Final Energy:  -184.64670050223648
    Total Energy =                       -184.6467005022364560
  @DF-RKS Final Energy:  -184.64670074136109
    Total Energy =                       -184.6467007413610588
  @DF-RKS Final Energy:  -184.64670051550499
    Total Energy =                       -184.6467005155049890
  **** Optimization is complete! (in 3 steps) ****
    Final optimized geometry and variables:
  @DF-RKS Final Energy:  -184.64670242090332
    Total Energy =                       -184.6467024209033241
  @DF-RKS Final Energy:  -184.64670084087624
    Total Energy =                       -184.6467008408762354
  @DF-RKS Final Energy:  -184.64670050291014
    Total Energy =                       -184.6467005029101358
  @DF-RKS Final Energy:  -184.64670074130427
    Total Energy =                       -184.6467007413042722
  @DF-RKS Final Energy:  -184.64670051306234
    Total Energy =                       -184.6467005130623420
  @DF-RKS Final Energy:  -184.64670242090327
    Total Energy =                       -184.6467024209032672
  @DF-RKS Final Energy:  -184.64670084087621
    Total Energy =                       -184.6467008408762069
  @DF-RKS Final Energy:  -184.64670050291039
    Total Energy =                       -184.6467005029103916
  @DF-RKS Final Energy:  -184.64670074130427
    Total Energy =                       -184.6467007413043007
  @DF-RKS Final Energy:  -184.64670051306220
    Total Energy =                       -184.6467005130621999
  Basis Set: AUG-CC-PV(D+D)Z
    Blend: AUG-CC-PV(D+D)Z
  Basis Set: (AUG-CC-PV(D+D)Z AUX)
    Blend: AUG-CC-PVDZ-JKFIT
  @DF-RKS Final Energy:  -184.64670042955288
    Total Energy =                       -184.6467004295528795
  Basis Set: AUG-CC-PV(D+D)Z
    Blend: AUG-CC-PV(D+D)Z
  Basis Set: (AUG-CC-PV(D+D)Z AUX)
    Blend: AUG-CC-PVDZ-JKFIT
  @DF-RKS Final Energy:  -184.64670098938186
    Total Energy =                       -184.6467009893818272
  Multiplicity = 1
  Basis Set: AUG-CC-PV(D+D)Z
    Blend: AUG-CC-PV(D+D)Z
  Basis Set: (AUG-CC-PV(D+D)Z AUX)
    Blend: AUG-CC-PVDZ-JKFIT
  @DF-RKS Final Energy:  -184.64670225685381
    Total Energy =                       -184.6467022568538141
    Molecular point group: cs

    Geometry (in Angstrom), charge = 0, multiplicity = 1:

       Center              X                  Y                   Z               Mass
    ------------   -----------------  -----------------  -----------------  -----------------
         N            0.000000000000    -0.000299464265    -1.200533151456    14.003074004430
         N            0.000000000000     0.000582995216    -0.074008126154    14.003074004430
         O            0.000000000000    -0.000248222949     1.115823138577    15.994914619570

  Charge       = 0
  Multiplicity = 1
  Basis Set: AUG-CC-PV(D+D)Z
    Blend: AUG-CC-PV(D+D)Z
  Basis Set: (AUG-CC-PV(D+D)Z AUX)
    Blend: AUG-CC-PVDZ-JKFIT

    Orbital Energies [Eh]
    ---------------------

    Doubly Occupied:

       1Ap   -19.456117     2Ap   -14.766167     3Ap   -14.634724
       4Ap    -1.382389     5Ap    -1.223904     6Ap    -0.725995
       1App   -0.683155     7Ap    -0.683155     8Ap    -0.597165
       2App   -0.445612     9Ap    -0.445612

  @DF-RKS Final Energy:  -184.64670225605306

   => Energetics <=

    Nuclear Repulsion Energy =             60.7167166436218011
    One-Electron Energy =                -370.5057257103461552
    Two-Electron Energy =                 141.1955012806974707
    DFT Exchange-Correlation Energy =     -16.1444069058648019
    Empirical Dispersion Energy =           0.0000000000000000
    VV10 Nonlocal Energy =                  0.0912124358386195
    Total Energy =                       -184.6467022560530609

  Dipole Moment: [D]
     X:     0.0000      Y:     0.0009      Z:    -0.2226     Total:     0.2226

  Vibration                       6                   7                   8
  Freq [cm^-1]                 588.8934            590.3289           1344.7617
  Irrep                           B1                  B2                  A1
  Reduced mass [u]             14.2529             14.2529             15.1257
  Force const [mDyne/A]         2.9122              2.9265             16.1159

  Vibration                       9
  Freq [cm^-1]                2383.4504
  Irrep                           A1
  Reduced mass [u]             14.0741
  Force const [mDyne/A]        47.1067

  ==> Thermochemistry Components <==

  Entropy, S
    Electronic S            0.000 [cal/(mol K)]        0.000 [J/(mol K)]       0.00000000 [mEh/K] (multiplicity = 1)
    Translational S        37.271 [cal/(mol K)]      155.941 [J/(mol K)]       0.05939493 [mEh/K] (mol. weight = 44.0011 [u], P = 101325.00 [Pa])
    Rotational S           14.312 [cal/(mol K)]       59.883 [J/(mol K)]       0.02280804 [mEh/K] (symmetry no. = 1)
    Vibrational S           0.959 [cal/(mol K)]        4.011 [J/(mol K)]       0.00152769 [mEh/K]
  Total S                  52.542 [cal/(mol K)]      219.835 [J/(mol K)]       0.08373066 [mEh/K]
  Correction S              0.000 [cal/(mol K)]        0.000 [J/(mol K)]       0.00000000 [mEh/K]

  Constant volume heat capacity, Cv
    Electronic Cv           0.000 [cal/(mol K)]        0.000 [J/(mol K)]       0.00000000 [mEh/K]
    Translational Cv        2.981 [cal/(mol K)]       12.472 [J/(mol K)]       0.00475022 [mEh/K]
    Rotational Cv           1.987 [cal/(mol K)]        8.314 [J/(mol K)]       0.00316681 [mEh/K]
    Vibrational Cv          2.238 [cal/(mol K)]        9.364 [J/(mol K)]       0.00356657 [mEh/K]
  Total Cv                  7.206 [cal/(mol K)]       30.150 [J/(mol K)]       0.01148360 [mEh/K]
  Correction Cv             0.000 [cal/(mol K)]        0.000 [J/(mol K)]       0.00000000 [mEh/K]

  Constant pressure heat capacity, Cp
    Electronic Cp           0.000 [cal/(mol K)]        0.000 [J/(mol K)]       0.00000000 [mEh/K]
    Translational Cp        4.968 [cal/(mol K)]       20.786 [J/(mol K)]       0.00791703 [mEh/K]
    Rotational Cp           1.987 [cal/(mol K)]        8.314 [J/(mol K)]       0.00316681 [mEh/K]
    Vibrational Cp          2.238 [cal/(mol K)]        9.364 [J/(mol K)]       0.00356657 [mEh/K]
  Total Cp                  9.193 [cal/(mol K)]       38.465 [J/(mol K)]       0.01465041 [mEh/K]
  Correction Cp             0.000 [cal/(mol K)]        0.000 [J/(mol K)]       0.00000000 [mEh/K]

  ==> Thermochemistry Energy Analysis <==

  Raw electronic energy, E0
  Total E0, Electronic energy at well bottom at 0 [K]                 -184.64670242 [Eh]

  Zero-point energy, ZPE_vib = Sum_i nu_i / 2
    Electronic ZPE          0.000 [kcal/mol]        0.000 [kJ/mol]       0.00000000 [Eh]
    Translational ZPE       0.000 [kcal/mol]        0.000 [kJ/mol]       0.00000000 [Eh]
    Rotational ZPE          0.000 [kcal/mol]        0.000 [kJ/mol]       0.00000000 [Eh]
    Vibrational ZPE         7.016 [kcal/mol]       29.353 [kJ/mol]       0.01117996 [Eh]        2453.717 [cm^-1]
  Correction ZPE            7.016 [kcal/mol]       29.353 [kJ/mol]       0.01117996 [Eh]        2453.717 [cm^-1]
  Total ZPE, Electronic energy at 0 [K]                               -184.63552246 [Eh]

  Thermal Energy, E (includes ZPE)
    Electronic E            0.000 [kcal/mol]        0.000 [kJ/mol]       0.00000000 [Eh]
    Translational E         0.889 [kcal/mol]        3.718 [kJ/mol]       0.00141628 [Eh]
    Rotational E            0.592 [kcal/mol]        2.479 [kJ/mol]       0.00094418 [Eh]
    Vibrational E           7.229 [kcal/mol]       30.248 [kJ/mol]       0.01152093 [Eh]
  Correction E              8.711 [kcal/mol]       36.446 [kJ/mol]       0.01388139 [Eh]
  Total E, Electronic energy at  298.15 [K]                           -184.63282103 [Eh]

  Enthalpy, H_trans = E_trans + k_B * T
    Electronic H            0.000 [kcal/mol]        0.000 [kJ/mol]       0.00000000 [Eh]
    Translational H         1.481 [kcal/mol]        6.197 [kJ/mol]       0.00236046 [Eh]
    Rotational H            0.592 [kcal/mol]        2.479 [kJ/mol]       0.00094418 [Eh]
    Vibrational H           7.229 [kcal/mol]       30.248 [kJ/mol]       0.01152093 [Eh]
  Correction H              9.303 [kcal/mol]       38.925 [kJ/mol]       0.01482557 [Eh]
  Total H, Enthalpy at  298.15 [K]                                    -184.63187685 [Eh]

  Gibbs free energy, G = H - T * S
    Electronic G            0.000 [kcal/mol]        0.000 [kJ/mol]       0.00000000 [Eh]
    Translational G        -9.631 [kcal/mol]      -40.297 [kJ/mol]      -0.01534814 [Eh]
    Rotational G           -3.675 [kcal/mol]      -15.375 [kJ/mol]      -0.00585603 [Eh]
    Vibrational G           6.944 [kcal/mol]       29.052 [kJ/mol]       0.01106545 [Eh]
  Correction G             -6.362 [kcal/mol]      -26.619 [kJ/mol]      -0.01013872 [Eh]
  Total G, Free enthalpy at  298.15 [K]                               -184.65684115 [Eh]

*** Psi4 exiting successfully. Buy a developer a beer!
