                               Psi4 1.3.2 release

  ==> Input File <==

--------------------------------------------------------------------------
memory 144 GB

molecule {
0 1
O 0.0000000000 0.0000000000 0.0000000000
C 0.0000000000 0.0000000000 1.1584320400
S 0.0000000000 0.0000000000 2.7252829900
}

set dynamic_level 1
set basis aug-cc-pV(D+d)Z

optimize("wB97M-V")
frequencies("wB97M-V")
--------------------------------------------------------------------------

    Molecular point group: c2v
  Charge       = 0
  Multiplicity = 1
  Basis Set: AUG-CC-PV(D+D)Z
    Blend: AUG-CC-PV(D+D)Z
  Basis Set: (AUG-CC-PV(D+D)Z AUX)
    Blend: AUG-CC-PVDZ-JKFIT
  @DF-RKS Final Energy:  -511.51657015675676
    Total Energy =                       -511.5165701567567567
    Molecular point group: c2v
  Basis Set: AUG-CC-PV(D+D)Z
    Blend: AUG-CC-PV(D+D)Z
  Basis Set: (AUG-CC-PV(D+D)Z AUX)
    Blend: AUG-CC-PVDZ-JKFIT
  @DF-RKS Final Energy:  -511.51657101823912
    Total Energy =                       -511.5165710182391763
  Basis Set: AUG-CC-PV(D+D)Z
    Blend: AUG-CC-PV(D+D)Z
  Basis Set: (AUG-CC-PV(D+D)Z AUX)
    Blend: AUG-CC-PVDZ-JKFIT
  @DF-RKS Final Energy:  -511.51656698032275
    Total Energy =                       -511.5165669803227502
  Basis Set: AUG-CC-PV(D+D)Z
    Blend: AUG-CC-PV(D+D)Z
  Basis Set: (AUG-CC-PV(D+D)Z AUX)
    Blend: AUG-CC-PVDZ-JKFIT
  @DF-RKS Final Energy:  -511.51657188687642
    Total Energy =                       -511.5165718868764770
  @DF-RKS Final Energy:  -511.51656567178867
    Total Energy =                       -511.5165656717886691
  @DF-RKS Final Energy:  -511.51657857765332
    Total Energy =                       -511.5165785776533198
  @DF-RKS Final Energy:  -511.51657720743998
    Total Energy =                       -511.5165772074399797
  @DF-RKS Final Energy:  -511.51657764551635
    Total Energy =                       -511.5165776455163495
  @DF-RKS Final Energy:  -511.51657798519699
    Total Energy =                       -511.5165779851969887
  @DF-RKS Final Energy:  -511.51657644416906
    Total Energy =                       -511.5165764441690612
  @DF-RKS Final Energy:  -511.51657871854525
    Total Energy =                       -511.5165787185451904
  @DF-RKS Final Energy:  -511.51657746621737
    Total Energy =                       -511.5165774662173703
  @DF-RKS Final Energy:  -511.51657766549368
    Total Energy =                       -511.5165776654936849
  @DF-RKS Final Energy:  -511.51657747212840
    Total Energy =                       -511.5165774721284038
  @DF-RKS Final Energy:  -511.51657723927406
    Total Energy =                       -511.5165772392741133
  **** Optimization is complete! (in 3 steps) ****
    Final optimized geometry and variables:
  @DF-RKS Final Energy:  -511.51657871900500
    Total Energy =                       -511.5165787190049969
  @DF-RKS Final Energy:  -511.51657746791011
    Total Energy =                       -511.5165774679101105
  @DF-RKS Final Energy:  -511.51657766596821
    Total Energy =                       -511.5165776659682138
  @DF-RKS Final Energy:  -511.51657747452833
    Total Energy =                       -511.5165774745283898
  @DF-RKS Final Energy:  -511.51657723840748
    Total Energy =                       -511.5165772384074785
  @DF-RKS Final Energy:  -511.51657871900511
    Total Energy =                       -511.5165787190051105
  @DF-RKS Final Energy:  -511.51657746791005
    Total Energy =                       -511.5165774679100537
  @DF-RKS Final Energy:  -511.51657766596873
    Total Energy =                       -511.5165776659687822
  @DF-RKS Final Energy:  -511.51657747452845
    Total Energy =                       -511.5165774745284466
  @DF-RKS Final Energy:  -511.51657723840793
    Total Energy =                       -511.5165772384079332
  Basis Set: AUG-CC-PV(D+D)Z
    Blend: AUG-CC-PV(D+D)Z
  Basis Set: (AUG-CC-PV(D+D)Z AUX)
    Blend: AUG-CC-PVDZ-JKFIT
  @DF-RKS Final Energy:  -511.51657794453530
    Total Energy =                       -511.5165779445352996
  Basis Set: AUG-CC-PV(D+D)Z
    Blend: AUG-CC-PV(D+D)Z
  Basis Set: (AUG-CC-PV(D+D)Z AUX)
    Blend: AUG-CC-PVDZ-JKFIT
  @DF-RKS Final Energy:  -511.51657797309070
    Total Energy =                       -511.5165779730907047
  Multiplicity = 1
  Basis Set: AUG-CC-PV(D+D)Z
    Blend: AUG-CC-PV(D+D)Z
  Basis Set: (AUG-CC-PV(D+D)Z AUX)
    Blend: AUG-CC-PVDZ-JKFIT
  @DF-RKS Final Energy:  -511.51657858991871
    Total Energy =                       -511.5165785899187085
    Molecular point group: cs

    Geometry (in Angstrom), charge = 0, multiplicity = 1:

       Center              X                  Y                   Z               Mass
    ------------   -----------------  -----------------  -----------------  -----------------
         O            0.000000000000    -0.000287365977    -1.686769366567    15.994914619570
         C            0.000000000000     0.000665814468    -0.527834487410    12.000000000000
         S            0.000000000000    -0.000106135737     1.041963958742    31.972071174400

  Charge       = 0
  Multiplicity = 1
  Basis Set: AUG-CC-PV(D+D)Z
    Blend: AUG-CC-PV(D+D)Z
  Basis Set: (AUG-CC-PV(D+D)Z AUX)
    Blend: AUG-CC-PVDZ-JKFIT

    Orbital Energies [Eh]
    ---------------------

    Doubly Occupied:

       1Ap   -89.239086     2Ap   -19.447350     3Ap   -10.535229
       4Ap    -8.159847     5Ap    -6.070643     1App   -6.063522
       6Ap    -6.063522     7Ap    -1.282596     8Ap    -0.948165
       9Ap    -0.672714    10Ap    -0.593719     2App   -0.593719
      11Ap    -0.578843     3App   -0.396948    12Ap    -0.396948

  @DF-RKS Final Energy:  -511.51657858935317

   => Energetics <=

    Nuclear Repulsion Energy =             79.1013447736651898
    One-Electron Energy =                -860.4285918316783182
    Two-Electron Energy =                 299.5766256171963846
    DFT Exchange-Correlation Energy =     -29.8904615335623802
    Empirical Dispersion Energy =           0.0000000000000000
    VV10 Nonlocal Energy =                  0.1245043850258563
    Total Energy =                       -511.5165785893532302

  Dipole Moment: [D]
     X:     0.0000      Y:     0.0007      Z:     0.7174     Total:     0.7174

  Vibration                       6                   7                   8
  Freq [cm^-1]                 522.3836            523.5266            888.9401
  Irrep                           B1                  B2                  A1
  Reduced mass [u]             13.0330             13.0330             19.6091
  Force const [mDyne/A]         2.0954              2.1046              9.1296

  Vibration                       9
  Freq [cm^-1]                2127.3402
  Irrep                           A1
  Reduced mass [u]             13.1395
  Force const [mDyne/A]        35.0352

  ==> Thermochemistry Components <==

  Entropy, S
    Electronic S            0.000 [cal/(mol K)]        0.000 [J/(mol K)]       0.00000000 [mEh/K] (multiplicity = 1)
    Translational S        38.194 [cal/(mol K)]      159.802 [J/(mol K)]       0.06086550 [mEh/K] (mol. weight = 59.9670 [u], P = 101325.00 [Pa])
    Rotational S           15.768 [cal/(mol K)]       65.972 [J/(mol K)]       0.02512740 [mEh/K] (symmetry no. = 1)
    Vibrational S           1.353 [cal/(mol K)]        5.661 [J/(mol K)]       0.00215612 [mEh/K]
  Total S                  55.314 [cal/(mol K)]      231.435 [J/(mol K)]       0.08814902 [mEh/K]
  Correction S              0.000 [cal/(mol K)]        0.000 [J/(mol K)]       0.00000000 [mEh/K]

  Constant volume heat capacity, Cv
    Electronic Cv           0.000 [cal/(mol K)]        0.000 [J/(mol K)]       0.00000000 [mEh/K]
    Translational Cv        2.981 [cal/(mol K)]       12.472 [J/(mol K)]       0.00475022 [mEh/K]
    Rotational Cv           1.987 [cal/(mol K)]        8.314 [J/(mol K)]       0.00316681 [mEh/K]
    Vibrational Cv          2.921 [cal/(mol K)]       12.221 [J/(mol K)]       0.00465484 [mEh/K]
  Total Cv                  7.889 [cal/(mol K)]       33.007 [J/(mol K)]       0.01257186 [mEh/K]
  Correction Cv             0.000 [cal/(mol K)]        0.000 [J/(mol K)]       0.00000000 [mEh/K]

  Constant pressure heat capacity, Cp
    Electronic Cp           0.000 [cal/(mol K)]        0.000 [J/(mol K)]       0.00000000 [mEh/K]
    Translational Cp        4.968 [cal/(mol K)]       20.786 [J/(mol K)]       0.00791703 [mEh/K]
    Rotational Cp           1.987 [cal/(mol K)]        8.314 [J/(mol K)]       0.00316681 [mEh/K]
    Vibrational Cp          2.921 [cal/(mol K)]       12.221 [J/(mol K)]       0.00465484 [mEh/K]
  Total Cp                  9.876 [cal/(mol K)]       41.322 [J/(mol K)]       0.01573867 [mEh/K]
  Correction Cp             0.000 [cal/(mol K)]        0.000 [J/(mol K)]       0.00000000 [mEh/K]

  ==> Thermochemistry Energy Analysis <==

  Raw electronic energy, E0
  Total E0, Electronic energy at well bottom at 0 [K]                 -511.51657872 [Eh]

  Zero-point energy, ZPE_vib = Sum_i nu_i / 2
    Electronic ZPE          0.000 [kcal/mol]        0.000 [kJ/mol]       0.00000000 [Eh]
    Translational ZPE       0.000 [kcal/mol]        0.000 [kJ/mol]       0.00000000 [Eh]
    Rotational ZPE          0.000 [kcal/mol]        0.000 [kJ/mol]       0.00000000 [Eh]
    Vibrational ZPE         5.807 [kcal/mol]       24.297 [kJ/mol]       0.00925435 [Eh]        2031.095 [cm^-1]
  Correction ZPE            5.807 [kcal/mol]       24.297 [kJ/mol]       0.00925435 [Eh]        2031.095 [cm^-1]
  Total ZPE, Electronic energy at 0 [K]                               -511.50732437 [Eh]

  Thermal Energy, E (includes ZPE)
    Electronic E            0.000 [kcal/mol]        0.000 [kJ/mol]       0.00000000 [Eh]
    Translational E         0.889 [kcal/mol]        3.718 [kJ/mol]       0.00141628 [Eh]
    Rotational E            0.592 [kcal/mol]        2.479 [kJ/mol]       0.00094418 [Eh]
    Vibrational E           6.103 [kcal/mol]       25.536 [kJ/mol]       0.00972633 [Eh]
  Correction E              7.585 [kcal/mol]       31.734 [kJ/mol]       0.01208679 [Eh]
  Total E, Electronic energy at  298.15 [K]                           -511.50449193 [Eh]

  Enthalpy, H_trans = E_trans + k_B * T
    Electronic H            0.000 [kcal/mol]        0.000 [kJ/mol]       0.00000000 [Eh]
    Translational H         1.481 [kcal/mol]        6.197 [kJ/mol]       0.00236046 [Eh]
    Rotational H            0.592 [kcal/mol]        2.479 [kJ/mol]       0.00094418 [Eh]
    Vibrational H           6.103 [kcal/mol]       25.536 [kJ/mol]       0.00972633 [Eh]
  Correction H              8.177 [kcal/mol]       34.213 [kJ/mol]       0.01303098 [Eh]
  Total H, Enthalpy at  298.15 [K]                                    -511.50354774 [Eh]

  Gibbs free energy, G = H - T * S
    Electronic G            0.000 [kcal/mol]        0.000 [kJ/mol]       0.00000000 [Eh]
    Translational G        -9.906 [kcal/mol]      -41.448 [kJ/mol]      -0.01578659 [Eh]
    Rotational G           -4.109 [kcal/mol]      -17.191 [kJ/mol]      -0.00654755 [Eh]
    Vibrational G           5.700 [kcal/mol]       23.849 [kJ/mol]       0.00908348 [Eh]
  Correction G             -8.315 [kcal/mol]      -34.790 [kJ/mol]      -0.01325066 [Eh]
  Total G, Free enthalpy at  298.15 [K]                               -511.52982937 [Eh]

*** Psi4 exiting successfully. Buy a developer a beer!
