                               Psi4 1.3.2 release

  ==> Input File <==

--------------------------------------------------------------------------
memory 144 GB

molecule {
0 1
P 0.0000000000 0.0000000000 -0.0679917919
H 1.1903431933 0.0000000000 0.6964572780
H -0.5951715967 -1.0308674445 0.6964572780
H -0.5951715967 1.0308674445 0.6964572780
}

set dynamic_level 1
set basis aug-cc-pV(D+d)Z

optimize("wB97M-V")
frequencies("wB97M-V")
--------------------------------------------------------------------------

    Molecular point group: cs
  Charge       = 0
  Multiplicity = 1
  Basis Set: AUG-CC-PV(D+D)Z
    Blend: AUG-CC-PV(D+D)Z
  Basis Set: (AUG-CC-PV(D+D)Z AUX)
    Blend: AUG-CC-PVDZ-JKFIT
  @DF-RKS Final Energy:  -343.10665228285848
    Total Energy =                       -343.1066522828584198
    Molecular point group: cs
  Basis Set: AUG-CC-PV(D+D)Z
    Blend: AUG-CC-PV(D+D)Z
  Basis Set: (AUG-CC-PV(D+D)Z AUX)
    Blend: AUG-CC-PVDZ-JKFIT
  @DF-RKS Final Energy:  -343.10665014587028
    Total Energy =                       -343.1066501458702760
  Basis Set: AUG-CC-PV(D+D)Z
    Blend: AUG-CC-PV(D+D)Z
  Basis Set: (AUG-CC-PV(D+D)Z AUX)
    Blend: AUG-CC-PVDZ-JKFIT
  @DF-RKS Final Energy:  -343.10665024153013
    Total Energy =                       -343.1066502415301329
  Basis Set: AUG-CC-PV(D+D)Z
    Blend: AUG-CC-PV(D+D)Z
  Basis Set: (AUG-CC-PV(D+D)Z AUX)
    Blend: AUG-CC-PVDZ-JKFIT
  @DF-RKS Final Energy:  -343.10663058702863
    Total Energy =                       -343.1066305870286328
  @DF-RKS Final Energy:  -343.10667171807933
    Total Energy =                       -343.1066717180793262
  @DF-RKS Final Energy:  -343.10663448087325
    Total Energy =                       -343.1066344808732538
  @DF-RKS Final Energy:  -343.10666648015012
    Total Energy =                       -343.1066664801501247
  @DF-RKS Final Energy:  -343.10663450773899
    Total Energy =                       -343.1066345077389883
  @DF-RKS Final Energy:  -343.10666645433264
    Total Energy =                       -343.1066664543326965
  @DF-RKS Final Energy:  -343.10674664934567
    Total Energy =                       -343.1067466493457232
  @DF-RKS Final Energy:  -343.10674466259553
    Total Energy =                       -343.1067446625955313
  @DF-RKS Final Energy:  -343.10674460157190
    Total Energy =                       -343.1067446015719042
  @DF-RKS Final Energy:  -343.10674417765972
    Total Energy =                       -343.1067441776597207
  @DF-RKS Final Energy:  -343.10674688778096
    Total Energy =                       -343.1067468877810143
  @DF-RKS Final Energy:  -343.10674574674027
    Total Energy =                       -343.1067457467402733
  @DF-RKS Final Energy:  -343.10674406999368
    Total Energy =                       -343.1067440699936242
  @DF-RKS Final Energy:  -343.10674574272906
    Total Energy =                       -343.1067457427290037
  @DF-RKS Final Energy:  -343.10674407474551
    Total Energy =                       -343.1067440747455635
  @DF-RKS Final Energy:  -343.10674830622918
    Total Energy =                       -343.1067483062291785
  @DF-RKS Final Energy:  -343.10674630675550
    Total Energy =                       -343.1067463067555536
  **** Optimization is complete! (in 3 steps) ****
    Final optimized geometry and variables:
  @DF-RKS Final Energy:  -343.10674666480566
    Total Energy =                       -343.1067466648055984
  @DF-RKS Final Energy:  -343.10674647130691
    Total Energy =                       -343.1067464713069057
  @DF-RKS Final Energy:  -343.10674666366435
    Total Energy =                       -343.1067466636643530
  @DF-RKS Final Energy:  -343.10674647273748
    Total Energy =                       -343.1067464727374841
  @DF-RKS Final Energy:  -343.10674521120251
    Total Energy =                       -343.1067452112025649
  @DF-RKS Final Energy:  -343.10674511616264
    Total Energy =                       -343.1067451161626423
  @DF-RKS Final Energy:  -343.10674298915268
    Total Energy =                       -343.1067429891526217
  @DF-RKS Final Energy:  -343.10674317284690
    Total Energy =                       -343.1067431728469046
  @DF-RKS Final Energy:  -343.10674396527020
    Total Energy =                       -343.1067439652702546
  @DF-RKS Final Energy:  -343.10674402627978
    Total Energy =                       -343.1067440262797845
  @DF-RKS Final Energy:  -343.10674591729799
    Total Energy =                       -343.1067459172979852
  @DF-RKS Final Energy:  -343.10674614466330
    Total Energy =                       -343.1067461446632478
  @DF-RKS Final Energy:  -343.10674396766831
    Total Energy =                       -343.1067439676683080
  @DF-RKS Final Energy:  -343.10674402403441
    Total Energy =                       -343.1067440240344126
  @DF-RKS Final Energy:  -343.10674387902492
    Total Energy =                       -343.1067438790249184
  @DF-RKS Final Energy:  -343.10674425659425
    Total Energy =                       -343.1067442565943111
  Basis Set: AUG-CC-PV(D+D)Z
    Blend: AUG-CC-PV(D+D)Z
  Basis Set: (AUG-CC-PV(D+D)Z AUX)
    Blend: AUG-CC-PVDZ-JKFIT
  @DF-RKS Final Energy:  -343.10674628381452
    Total Energy =                       -343.1067462838144593
  Basis Set: AUG-CC-PV(D+D)Z
    Blend: AUG-CC-PV(D+D)Z
  Basis Set: (AUG-CC-PV(D+D)Z AUX)
    Blend: AUG-CC-PVDZ-JKFIT
  @DF-RKS Final Energy:  -343.10674586360494
    Total Energy =                       -343.1067458636049423
  Multiplicity = 1
  Basis Set: AUG-CC-PV(D+D)Z
    Blend: AUG-CC-PV(D+D)Z
  Basis Set: (AUG-CC-PV(D+D)Z AUX)
    Blend: AUG-CC-PVDZ-JKFIT
  @DF-RKS Final Energy:  -343.10674592819163
    Total Energy =                       -343.1067459281916285
    Molecular point group: c1

    Geometry (in Angstrom), charge = 0, multiplicity = 1:

       Center              X                  Y                   Z               Mass
    ------------   -----------------  -----------------  -----------------  -----------------
         P            0.000000305056     0.069075986224    -0.000106480608    30.973761998420
         H            0.595005679324    -0.708873694731     1.033185945903     1.007825032230
         H            0.597641293440    -0.706412736155    -1.032525929310     1.007825032230
         H           -1.192656348136    -0.707644721547     0.002612481032     1.007825032230

  Charge       = 0
  Multiplicity = 1
  Basis Set: AUG-CC-PV(D+D)Z
    Blend: AUG-CC-PV(D+D)Z
  Basis Set: (AUG-CC-PV(D+D)Z AUX)
    Blend: AUG-CC-PVDZ-JKFIT

    Orbital Energies [Eh]
    ---------------------

    Doubly Occupied:

       1A    -77.391538     2A     -6.729883     3A     -4.842289
       4A     -4.842287     5A     -4.838684     6A     -0.760783
       7A     -0.477344     8A     -0.476678     9A     -0.370724

  @DF-RKS Final Energy:  -343.10674592726332

   => Energetics <=

    Nuclear Repulsion Energy =             17.4996598879906635
    One-Electron Energy =                -508.2819386181658956
    Two-Electron Energy =                 165.9926367969156331
    DFT Exchange-Correlation Energy =     -18.3925120902959733
    Empirical Dispersion Energy =           0.0000000000000000
    VV10 Nonlocal Energy =                  0.0754080962922108
    Total Energy =                       -343.1067459272633187

  Dipole Moment: [D]
     X:     0.0000      Y:    -0.5689      Z:    -0.0026     Total:     0.5689

  Vibration                       7                   8                   9
  Freq [cm^-1]                1003.6012           1119.1803           1571.4512
  Irrep                           Ap                  Ap                 App
  Reduced mass [u]              1.0742              1.0252              1.0380
  Force const [mDyne/A]         0.6375              0.7566              1.5102

  Vibration                       10                  11                  12
  Freq [cm^-1]                2416.2651           2424.2381           2639.7568
  Irrep                           Ap                  Ap                 App
  Reduced mass [u]              1.0328              1.0407              1.0278
  Force const [mDyne/A]         3.5527              3.6035              4.2199

  ==> Thermochemistry Components <==

  Entropy, S
    Electronic S            0.000 [cal/(mol K)]        0.000 [J/(mol K)]       0.00000000 [mEh/K] (multiplicity = 1)
    Translational S        36.502 [cal/(mol K)]      152.724 [J/(mol K)]       0.05816968 [mEh/K] (mol. weight = 33.9972 [u], P = 101325.00 [Pa])
    Rotational S           15.706 [cal/(mol K)]       65.713 [J/(mol K)]       0.02502867 [mEh/K] (symmetry no. = 1)
    Vibrational S           0.159 [cal/(mol K)]        0.665 [J/(mol K)]       0.00025343 [mEh/K]
  Total S                  52.367 [cal/(mol K)]      219.103 [J/(mol K)]       0.08345178 [mEh/K]
  Correction S              0.000 [cal/(mol K)]        0.000 [J/(mol K)]       0.00000000 [mEh/K]

  Constant volume heat capacity, Cv
    Electronic Cv           0.000 [cal/(mol K)]        0.000 [J/(mol K)]       0.00000000 [mEh/K]
    Translational Cv        2.981 [cal/(mol K)]       12.472 [J/(mol K)]       0.00475022 [mEh/K]
    Rotational Cv           2.981 [cal/(mol K)]       12.472 [J/(mol K)]       0.00475022 [mEh/K]
    Vibrational Cv          0.701 [cal/(mol K)]        2.933 [J/(mol K)]       0.00111711 [mEh/K]
  Total Cv                  6.663 [cal/(mol K)]       27.876 [J/(mol K)]       0.01061755 [mEh/K]
  Correction Cv             0.000 [cal/(mol K)]        0.000 [J/(mol K)]       0.00000000 [mEh/K]

  Constant pressure heat capacity, Cp
    Electronic Cp           0.000 [cal/(mol K)]        0.000 [J/(mol K)]       0.00000000 [mEh/K]
    Translational Cp        4.968 [cal/(mol K)]       20.786 [J/(mol K)]       0.00791703 [mEh/K]
    Rotational Cp           2.981 [cal/(mol K)]       12.472 [J/(mol K)]       0.00475022 [mEh/K]
    Vibrational Cp          0.701 [cal/(mol K)]        2.933 [J/(mol K)]       0.00111711 [mEh/K]
  Total Cp                  8.650 [cal/(mol K)]       36.191 [J/(mol K)]       0.01378436 [mEh/K]
  Correction Cp             0.000 [cal/(mol K)]        0.000 [J/(mol K)]       0.00000000 [mEh/K]

  ==> Thermochemistry Energy Analysis <==

  Raw electronic energy, E0
  Total E0, Electronic energy at well bottom at 0 [K]                 -343.10674831 [Eh]

  Zero-point energy, ZPE_vib = Sum_i nu_i / 2
    Electronic ZPE          0.000 [kcal/mol]        0.000 [kJ/mol]       0.00000000 [Eh]
    Translational ZPE       0.000 [kcal/mol]        0.000 [kJ/mol]       0.00000000 [Eh]
    Rotational ZPE          0.000 [kcal/mol]        0.000 [kJ/mol]       0.00000000 [Eh]
    Vibrational ZPE        15.975 [kcal/mol]       66.838 [kJ/mol]       0.02545737 [Eh]        5587.246 [cm^-1]
  Correction ZPE           15.975 [kcal/mol]       66.838 [kJ/mol]       0.02545737 [Eh]        5587.246 [cm^-1]
  Total ZPE, Electronic energy at 0 [K]                               -343.08129094 [Eh]

  Thermal Energy, E (includes ZPE)
    Electronic E            0.000 [kcal/mol]        0.000 [kJ/mol]       0.00000000 [Eh]
    Translational E         0.889 [kcal/mol]        3.718 [kJ/mol]       0.00141628 [Eh]
    Rotational E            0.889 [kcal/mol]        3.718 [kJ/mol]       0.00141628 [Eh]
    Vibrational E          16.014 [kcal/mol]       67.005 [kJ/mol]       0.02552068 [Eh]
  Correction E             17.792 [kcal/mol]       74.441 [kJ/mol]       0.02835324 [Eh]
  Total E, Electronic energy at  298.15 [K]                           -343.07839507 [Eh]

  Enthalpy, H_trans = E_trans + k_B * T
    Electronic H            0.000 [kcal/mol]        0.000 [kJ/mol]       0.00000000 [Eh]
    Translational H         1.481 [kcal/mol]        6.197 [kJ/mol]       0.00236046 [Eh]
    Rotational H            0.889 [kcal/mol]        3.718 [kJ/mol]       0.00141628 [Eh]
    Vibrational H          16.014 [kcal/mol]       67.005 [kJ/mol]       0.02552068 [Eh]
  Correction H             18.384 [kcal/mol]       76.920 [kJ/mol]       0.02929742 [Eh]
  Total H, Enthalpy at  298.15 [K]                                    -343.07745088 [Eh]

  Gibbs free energy, G = H - T * S
    Electronic G            0.000 [kcal/mol]        0.000 [kJ/mol]       0.00000000 [Eh]
    Translational G        -9.402 [kcal/mol]      -39.337 [kJ/mol]      -0.01498283 [Eh]
    Rotational G           -3.794 [kcal/mol]      -15.874 [kJ/mol]      -0.00604602 [Eh]
    Vibrational G          15.967 [kcal/mol]       66.806 [kJ/mol]       0.02544512 [Eh]
  Correction G              2.771 [kcal/mol]       11.595 [kJ/mol]       0.00441628 [Eh]
  Total G, Free enthalpy at  298.15 [K]                               -343.10233203 [Eh]

*** Psi4 exiting successfully. Buy a developer a beer!
