                               Psi4 1.3.2 release

  ==> Input File <==

--------------------------------------------------------------------------
memory 144 GB

molecule {
0 1
Si 0.0000000000 0.0000000000 0.0000000000
O 0.0000000000 0.0000000000 1.5170406700
}

set dynamic_level 1
set basis aug-cc-pV(D+d)Z

optimize("wB97M-V")
frequencies("wB97M-V")
--------------------------------------------------------------------------

    Molecular point group: c2v
  Charge       = 0
  Multiplicity = 1
  Basis Set: AUG-CC-PV(D+D)Z
    Blend: AUG-CC-PV(D+D)Z
  Basis Set: (AUG-CC-PV(D+D)Z AUX)
    Blend: AUG-CC-PVDZ-JKFIT
  @DF-RKS Final Energy:  -364.70920583860675
    Total Energy =                       -364.7092058386068061
    Molecular point group: c2v
  Basis Set: AUG-CC-PV(D+D)Z
    Blend: AUG-CC-PV(D+D)Z
  Basis Set: (AUG-CC-PV(D+D)Z AUX)
    Blend: AUG-CC-PVDZ-JKFIT
  @DF-RKS Final Energy:  -364.70921044255050
    Total Energy =                       -364.7092104425504999
  Basis Set: AUG-CC-PV(D+D)Z
    Blend: AUG-CC-PV(D+D)Z
  Basis Set: (AUG-CC-PV(D+D)Z AUX)
    Blend: AUG-CC-PVDZ-JKFIT
  @DF-RKS Final Energy:  -364.70919975120870
    Total Energy =                       -364.7091997512087005
  Basis Set: AUG-CC-PV(D+D)Z
    Blend: AUG-CC-PV(D+D)Z
  Basis Set: (AUG-CC-PV(D+D)Z AUX)
    Blend: AUG-CC-PVDZ-JKFIT
  @DF-RKS Final Energy:  -364.70921527610147
    Total Energy =                       -364.7092152761014745
  @DF-RKS Final Energy:  -364.70921539714453
    Total Energy =                       -364.7092153971445327
  @DF-RKS Final Energy:  -364.70921369303204
    Total Energy =                       -364.7092136930320407
  @DF-RKS Final Energy:  -364.70921552417616
    Total Energy =                       -364.7092155241761020
  @DF-RKS Final Energy:  -364.70921480199729
    Total Energy =                       -364.7092148019972342
  @DF-RKS Final Energy:  -364.70921478734175
    Total Energy =                       -364.7092147873418071
  **** Optimization is complete! (in 3 steps) ****
    Final optimized geometry and variables:
  @DF-RKS Final Energy:  -364.70921552418162
    Total Energy =                       -364.7092155241816158
  @DF-RKS Final Energy:  -364.70921480206658
    Total Energy =                       -364.7092148020666400
  Basis Set: AUG-CC-PV(D+D)Z
    Blend: AUG-CC-PV(D+D)Z
  Basis Set: (AUG-CC-PV(D+D)Z AUX)
    Blend: AUG-CC-PVDZ-JKFIT
  @DF-RKS Final Energy:  -364.70921478760329
    Total Energy =                       -364.7092147876033437
  Basis Set: AUG-CC-PV(D+D)Z
    Blend: AUG-CC-PV(D+D)Z
  Basis Set: (AUG-CC-PV(D+D)Z AUX)
    Blend: AUG-CC-PVDZ-JKFIT
  @DF-RKS Final Energy:  -364.70921552418139
    Total Energy =                       -364.7092155241814453
  Multiplicity = 1
  Basis Set: AUG-CC-PV(D+D)Z
    Blend: AUG-CC-PV(D+D)Z
  Basis Set: (AUG-CC-PV(D+D)Z AUX)
    Blend: AUG-CC-PVDZ-JKFIT
  @DF-RKS Final Energy:  -364.70921480206698
    Total Energy =                       -364.7092148020669811
    Molecular point group: c2v

    Geometry (in Angstrom), charge = 0, multiplicity = 1:

       Center              X                  Y                   Z               Mass
    ------------   -----------------  -----------------  -----------------  -----------------
         SI           0.000000000000     0.000000000000    -0.552622633020    27.976926534650
         O            0.000000000000     0.000000000000     0.966599895848    15.994914619570

  Charge       = 0
  Multiplicity = 1
  Basis Set: AUG-CC-PV(D+D)Z
    Blend: AUG-CC-PV(D+D)Z
  Basis Set: (AUG-CC-PV(D+D)Z AUX)
    Blend: AUG-CC-PVDZ-JKFIT

    Orbital Energies [Eh]
    ---------------------

    Doubly Occupied:

       1A1   -66.462319     2A1   -19.339748     3A1    -5.487056
       1B2    -3.801708     1B1    -3.801708     4A1    -3.796904
       5A1    -1.071795     6A1    -0.548667     2B1    -0.434701
       2B2    -0.434701     7A1    -0.408563

  @DF-RKS Final Energy:  -364.70921478760346

   => Energetics <=

    Nuclear Repulsion Energy =             39.0119593863620580
    One-Electron Energy =                -582.3198470635176136
    Two-Electron Energy =                 200.7526287865377412
    DFT Exchange-Correlation Energy =     -22.2469679145553911
    Empirical Dispersion Energy =           0.0000000000000000
    VV10 Nonlocal Energy =                  0.0930120175697574
    Total Energy =                       -364.7092147876034574

  Dipole Moment: [D]
     X:     0.0000      Y:     0.0000      Z:    -3.3426     Total:     3.3426

  Vibration                       6
  Freq [cm^-1]                1241.6984
  Irrep                           A1
  Reduced mass [u]             18.9466
  Force const [mDyne/A]        17.2113

  ==> Thermochemistry Components <==

  Entropy, S
    Electronic S            0.000 [cal/(mol K)]        0.000 [J/(mol K)]       0.00000000 [mEh/K] (multiplicity = 1)
    Translational S        37.269 [cal/(mol K)]      155.933 [J/(mol K)]       0.05939177 [mEh/K] (mol. weight = 43.9718 [u], P = 101325.00 [Pa])
    Rotational S           13.248 [cal/(mol K)]       55.429 [J/(mol K)]       0.02111183 [mEh/K] (symmetry no. = 1)
    Vibrational S           0.035 [cal/(mol K)]        0.146 [J/(mol K)]       0.00005545 [mEh/K]
  Total S                  50.552 [cal/(mol K)]      211.508 [J/(mol K)]       0.08055905 [mEh/K]
  Correction S              0.000 [cal/(mol K)]        0.000 [J/(mol K)]       0.00000000 [mEh/K]

  Constant volume heat capacity, Cv
    Electronic Cv           0.000 [cal/(mol K)]        0.000 [J/(mol K)]       0.00000000 [mEh/K]
    Translational Cv        2.981 [cal/(mol K)]       12.472 [J/(mol K)]       0.00475022 [mEh/K]
    Rotational Cv           1.987 [cal/(mol K)]        8.314 [J/(mol K)]       0.00316681 [mEh/K]
    Vibrational Cv          0.179 [cal/(mol K)]        0.750 [J/(mol K)]       0.00028552 [mEh/K]
  Total Cv                  5.147 [cal/(mol K)]       21.536 [J/(mol K)]       0.00820254 [mEh/K]
  Correction Cv             0.000 [cal/(mol K)]        0.000 [J/(mol K)]       0.00000000 [mEh/K]

  Constant pressure heat capacity, Cp
    Electronic Cp           0.000 [cal/(mol K)]        0.000 [J/(mol K)]       0.00000000 [mEh/K]
    Translational Cp        4.968 [cal/(mol K)]       20.786 [J/(mol K)]       0.00791703 [mEh/K]
    Rotational Cp           1.987 [cal/(mol K)]        8.314 [J/(mol K)]       0.00316681 [mEh/K]
    Vibrational Cp          0.179 [cal/(mol K)]        0.750 [J/(mol K)]       0.00028552 [mEh/K]
  Total Cp                  7.134 [cal/(mol K)]       29.850 [J/(mol K)]       0.01136935 [mEh/K]
  Correction Cp             0.000 [cal/(mol K)]        0.000 [J/(mol K)]       0.00000000 [mEh/K]

  ==> Thermochemistry Energy Analysis <==

  Raw electronic energy, E0
  Total E0, Electronic energy at well bottom at 0 [K]                 -364.70921552 [Eh]

  Zero-point energy, ZPE_vib = Sum_i nu_i / 2
    Electronic ZPE          0.000 [kcal/mol]        0.000 [kJ/mol]       0.00000000 [Eh]
    Translational ZPE       0.000 [kcal/mol]        0.000 [kJ/mol]       0.00000000 [Eh]
    Rotational ZPE          0.000 [kcal/mol]        0.000 [kJ/mol]       0.00000000 [Eh]
    Vibrational ZPE         1.775 [kcal/mol]        7.427 [kJ/mol]       0.00282880 [Eh]         620.849 [cm^-1]
  Correction ZPE            1.775 [kcal/mol]        7.427 [kJ/mol]       0.00282880 [Eh]         620.849 [cm^-1]
  Total ZPE, Electronic energy at 0 [K]                               -364.70638673 [Eh]

  Thermal Energy, E (includes ZPE)
    Electronic E            0.000 [kcal/mol]        0.000 [kJ/mol]       0.00000000 [Eh]
    Translational E         0.889 [kcal/mol]        3.718 [kJ/mol]       0.00141628 [Eh]
    Rotational E            0.592 [kcal/mol]        2.479 [kJ/mol]       0.00094418 [Eh]
    Vibrational E           1.784 [kcal/mol]        7.464 [kJ/mol]       0.00284297 [Eh]
  Correction E              3.265 [kcal/mol]       13.662 [kJ/mol]       0.00520343 [Eh]
  Total E, Electronic energy at  298.15 [K]                           -364.70401209 [Eh]

  Enthalpy, H_trans = E_trans + k_B * T
    Electronic H            0.000 [kcal/mol]        0.000 [kJ/mol]       0.00000000 [Eh]
    Translational H         1.481 [kcal/mol]        6.197 [kJ/mol]       0.00236046 [Eh]
    Rotational H            0.592 [kcal/mol]        2.479 [kJ/mol]       0.00094418 [Eh]
    Vibrational H           1.784 [kcal/mol]        7.464 [kJ/mol]       0.00284297 [Eh]
  Correction H              3.858 [kcal/mol]       16.141 [kJ/mol]       0.00614761 [Eh]
  Total H, Enthalpy at  298.15 [K]                                    -364.70306791 [Eh]

  Gibbs free energy, G = H - T * S
    Electronic G            0.000 [kcal/mol]        0.000 [kJ/mol]       0.00000000 [Eh]
    Translational G        -9.631 [kcal/mol]      -40.294 [kJ/mol]      -0.01534720 [Eh]
    Rotational G           -3.357 [kcal/mol]      -14.047 [kJ/mol]      -0.00535031 [Eh]
    Vibrational G           1.774 [kcal/mol]        7.421 [kJ/mol]       0.00282643 [Eh]
  Correction G            -11.214 [kcal/mol]      -46.920 [kJ/mol]      -0.01787107 [Eh]
  Total G, Free enthalpy at  298.15 [K]                               -364.72708659 [Eh]

*** Psi4 exiting successfully. Buy a developer a beer!
