                               Psi4 1.3.2 release

  ==> Input File <==

--------------------------------------------------------------------------
memory 144 GB

molecule {
0 1
S 0.0000000000 0.0000000000 0.0000000000
O 0.0000000000 0.0000000000 1.4355085900
O 1.2508167239 0.0000000000 -0.7043737894
}

set dynamic_level 1
set basis aug-cc-pV(D+d)Z

optimize("wB97M-V")
frequencies("wB97M-V")
--------------------------------------------------------------------------

    Molecular point group: c2v
  Charge       = 0
  Multiplicity = 1
  Basis Set: AUG-CC-PV(D+D)Z
    Blend: AUG-CC-PV(D+D)Z
  Basis Set: (AUG-CC-PV(D+D)Z AUX)
    Blend: AUG-CC-PVDZ-JKFIT
  @DF-RKS Final Energy:  -548.59327394411184
    Total Energy =                       -548.5932739441118429
    Molecular point group: c2v
  Basis Set: AUG-CC-PV(D+D)Z
    Blend: AUG-CC-PV(D+D)Z
  Basis Set: (AUG-CC-PV(D+D)Z AUX)
    Blend: AUG-CC-PVDZ-JKFIT
  @DF-RKS Final Energy:  -548.59329094732755
    Total Energy =                       -548.5932909473276595
  Basis Set: AUG-CC-PV(D+D)Z
    Blend: AUG-CC-PV(D+D)Z
  Basis Set: (AUG-CC-PV(D+D)Z AUX)
    Blend: AUG-CC-PVDZ-JKFIT
  @DF-RKS Final Energy:  -548.59325619797653
    Total Energy =                       -548.5932561979764159
  Basis Set: AUG-CC-PV(D+D)Z
    Blend: AUG-CC-PV(D+D)Z
  Basis Set: (AUG-CC-PV(D+D)Z AUX)
    Blend: AUG-CC-PVDZ-JKFIT
  @DF-RKS Final Energy:  -548.59325437303391
    Total Energy =                       -548.5932543730339148
  @DF-RKS Final Energy:  -548.59329259417825
    Total Energy =                       -548.5932925941783651
  @DF-RKS Final Energy:  -548.59348988246086
    Total Energy =                       -548.5934898824607444
  @DF-RKS Final Energy:  -548.59349482208370
    Total Energy =                       -548.5934948220836986
  @DF-RKS Final Energy:  -548.59348421646087
    Total Energy =                       -548.5934842164609790
  @DF-RKS Final Energy:  -548.59348314529848
    Total Energy =                       -548.5934831452985918
  @DF-RKS Final Energy:  -548.59349574022190
    Total Energy =                       -548.5934957402220107
  @DF-RKS Final Energy:  -548.59351485087245
    Total Energy =                       -548.5935148508724524
  @DF-RKS Final Energy:  -548.59351479937447
    Total Energy =                       -548.5935147993743612
  @DF-RKS Final Energy:  -548.59351418318511
    Total Energy =                       -548.5935141831851070
  @DF-RKS Final Energy:  -548.59351443207493
    Total Energy =                       -548.5935144320750396
  @DF-RKS Final Energy:  -548.59351440484841
    Total Energy =                       -548.5935144048484062
  @DF-RKS Final Energy:  -548.59351495639078
    Total Energy =                       -548.5935149563906634
  @DF-RKS Final Energy:  -548.59351452203941
    Total Energy =                       -548.5935145220395270
  @DF-RKS Final Energy:  -548.59351467292731
    Total Energy =                       -548.5935146729274265
  @DF-RKS Final Energy:  -548.59351444016863
    Total Energy =                       -548.5935144401686330
  @DF-RKS Final Energy:  -548.59351460689993
    Total Energy =                       -548.5935146068998165
  **** Optimization is complete! (in 4 steps) ****
    Final optimized geometry and variables:
  @DF-RKS Final Energy:  -548.59351495639066
    Total Energy =                       -548.5935149563908908
  @DF-RKS Final Energy:  -548.59351452203907
    Total Energy =                       -548.5935145220390723
  @DF-RKS Final Energy:  -548.59351467292754
    Total Energy =                       -548.5935146729274265
  @DF-RKS Final Energy:  -548.59351444016806
    Total Energy =                       -548.5935144401680645
  @DF-RKS Final Energy:  -548.59351460689959
    Total Energy =                       -548.5935146068997028
  @DF-RKS Final Energy:  -548.59351495639123
    Total Energy =                       -548.5935149563912319
  @DF-RKS Final Energy:  -548.59351452203964
    Total Energy =                       -548.5935145220397544
  @DF-RKS Final Energy:  -548.59351467292731
    Total Energy =                       -548.5935146729274265
  @DF-RKS Final Energy:  -548.59351444016841
    Total Energy =                       -548.5935144401685193
  Basis Set: AUG-CC-PV(D+D)Z
    Blend: AUG-CC-PV(D+D)Z
  Basis Set: (AUG-CC-PV(D+D)Z AUX)
    Blend: AUG-CC-PVDZ-JKFIT
  @DF-RKS Final Energy:  -548.59351460690016
    Total Energy =                       -548.5935146069002712
  Basis Set: AUG-CC-PV(D+D)Z
    Blend: AUG-CC-PV(D+D)Z
  Basis Set: (AUG-CC-PV(D+D)Z AUX)
    Blend: AUG-CC-PVDZ-JKFIT
  @DF-RKS Final Energy:  -548.59351486312289
    Total Energy =                       -548.5935148631228913
  Multiplicity = 1
  Basis Set: AUG-CC-PV(D+D)Z
    Blend: AUG-CC-PV(D+D)Z
  Basis Set: (AUG-CC-PV(D+D)Z AUX)
    Blend: AUG-CC-PVDZ-JKFIT
  @DF-RKS Final Energy:  -548.59351454315834
    Total Energy =                       -548.5935145431583351
    Molecular point group: cs

    Geometry (in Angstrom), charge = 0, multiplicity = 1:

       Center              X                  Y                   Z               Mass
    ------------   -----------------  -----------------  -----------------  -----------------
         S            0.000000000000    -0.000305455976    -0.367100997357    31.972071174400
         O            0.000000000000     1.245375231257     0.367077187303    15.994914619570
         O            0.000000000000    -1.244764658433     0.366717240167    15.994914619570

  Charge       = 0
  Multiplicity = 1
  Basis Set: AUG-CC-PV(D+D)Z
    Blend: AUG-CC-PV(D+D)Z
  Basis Set: (AUG-CC-PV(D+D)Z AUX)
    Blend: AUG-CC-PVDZ-JKFIT

    Orbital Energies [Eh]
    ---------------------

    Doubly Occupied:

       1Ap   -89.407469     2Ap   -19.420173     3Ap   -19.420007
       4Ap    -8.305342     1App   -6.214825     5Ap    -6.214366
       6Ap    -6.209402     7Ap    -1.285376     8Ap    -1.192273
       9Ap    -0.767087    10Ap    -0.612749    11Ap    -0.612245
       2App   -0.610816     3App   -0.480386    12Ap    -0.470513
      13Ap    -0.441749

  @DF-RKS Final Energy:  -548.59351405632094

   => Energetics <=

    Nuclear Repulsion Energy =            107.3302046014614888
    One-Electron Energy =                -968.2569524468949567
    Two-Electron Energy =                 344.5445719502462794
    DFT Exchange-Correlation Energy =     -32.3439528194380017
    Empirical Dispersion Energy =           0.0000000000000000
    VV10 Nonlocal Energy =                  0.1326146583043185
    Total Energy =                       -548.5935140563208279

  Dipole Moment: [D]
     X:     0.0000      Y:    -0.0064      Z:    -1.7988     Total:     1.7988

  Vibration                       7                   8                   9
  Freq [cm^-1]                 512.1915           1188.0343           1379.3913
  Irrep                           A1                  A1                  B2
  Reduced mass [u]             18.6414             17.9308             20.3223
  Force const [mDyne/A]         2.8813             14.9110             22.7824

  ==> Thermochemistry Components <==

  Entropy, S
    Electronic S            0.000 [cal/(mol K)]        0.000 [J/(mol K)]       0.00000000 [mEh/K] (multiplicity = 1)
    Translational S        38.386 [cal/(mol K)]      160.607 [J/(mol K)]       0.06117186 [mEh/K] (mol. weight = 63.9619 [u], P = 101325.00 [Pa])
    Rotational S           20.276 [cal/(mol K)]       84.835 [J/(mol K)]       0.03231210 [mEh/K] (symmetry no. = 2)
    Vibrational S           0.691 [cal/(mol K)]        2.893 [J/(mol K)]       0.00110175 [mEh/K]
  Total S                  59.353 [cal/(mol K)]      248.335 [J/(mol K)]       0.09458571 [mEh/K]
  Correction S              0.000 [cal/(mol K)]        0.000 [J/(mol K)]       0.00000000 [mEh/K]

  Constant volume heat capacity, Cv
    Electronic Cv           0.000 [cal/(mol K)]        0.000 [J/(mol K)]       0.00000000 [mEh/K]
    Translational Cv        2.981 [cal/(mol K)]       12.472 [J/(mol K)]       0.00475022 [mEh/K]
    Rotational Cv           2.981 [cal/(mol K)]       12.472 [J/(mol K)]       0.00475022 [mEh/K]
    Vibrational Cv          1.549 [cal/(mol K)]        6.482 [J/(mol K)]       0.00246894 [mEh/K]
  Total Cv                  7.511 [cal/(mol K)]       31.426 [J/(mol K)]       0.01196937 [mEh/K]
  Correction Cv             0.000 [cal/(mol K)]        0.000 [J/(mol K)]       0.00000000 [mEh/K]

  Constant pressure heat capacity, Cp
    Electronic Cp           0.000 [cal/(mol K)]        0.000 [J/(mol K)]       0.00000000 [mEh/K]
    Translational Cp        4.968 [cal/(mol K)]       20.786 [J/(mol K)]       0.00791703 [mEh/K]
    Rotational Cp           2.981 [cal/(mol K)]       12.472 [J/(mol K)]       0.00475022 [mEh/K]
    Vibrational Cp          1.549 [cal/(mol K)]        6.482 [J/(mol K)]       0.00246894 [mEh/K]
  Total Cp                  9.498 [cal/(mol K)]       39.740 [J/(mol K)]       0.01513618 [mEh/K]
  Correction Cp             0.000 [cal/(mol K)]        0.000 [J/(mol K)]       0.00000000 [mEh/K]

  ==> Thermochemistry Energy Analysis <==

  Raw electronic energy, E0
  Total E0, Electronic energy at well bottom at 0 [K]                 -548.59351496 [Eh]

  Zero-point energy, ZPE_vib = Sum_i nu_i / 2
    Electronic ZPE          0.000 [kcal/mol]        0.000 [kJ/mol]       0.00000000 [Eh]
    Translational ZPE       0.000 [kcal/mol]        0.000 [kJ/mol]       0.00000000 [Eh]
    Rotational ZPE          0.000 [kcal/mol]        0.000 [kJ/mol]       0.00000000 [Eh]
    Vibrational ZPE         4.403 [kcal/mol]       18.420 [kJ/mol]       0.00701588 [Eh]        1539.809 [cm^-1]
  Correction ZPE            4.403 [kcal/mol]       18.420 [kJ/mol]       0.00701588 [Eh]        1539.809 [cm^-1]
  Total ZPE, Electronic energy at 0 [K]                               -548.58649907 [Eh]

  Thermal Energy, E (includes ZPE)
    Electronic E            0.000 [kcal/mol]        0.000 [kJ/mol]       0.00000000 [Eh]
    Translational E         0.889 [kcal/mol]        3.718 [kJ/mol]       0.00141628 [Eh]
    Rotational E            0.889 [kcal/mol]        3.718 [kJ/mol]       0.00141628 [Eh]
    Vibrational E           4.554 [kcal/mol]       19.053 [kJ/mol]       0.00725680 [Eh]
  Correction E              6.331 [kcal/mol]       26.490 [kJ/mol]       0.01008935 [Eh]
  Total E, Electronic energy at  298.15 [K]                           -548.58342561 [Eh]

  Enthalpy, H_trans = E_trans + k_B * T
    Electronic H            0.000 [kcal/mol]        0.000 [kJ/mol]       0.00000000 [Eh]
    Translational H         1.481 [kcal/mol]        6.197 [kJ/mol]       0.00236046 [Eh]
    Rotational H            0.889 [kcal/mol]        3.718 [kJ/mol]       0.00141628 [Eh]
    Vibrational H           4.554 [kcal/mol]       19.053 [kJ/mol]       0.00725680 [Eh]
  Correction H              6.924 [kcal/mol]       28.969 [kJ/mol]       0.01103354 [Eh]
  Total H, Enthalpy at  298.15 [K]                                    -548.58248142 [Eh]

  Gibbs free energy, G = H - T * S
    Electronic G            0.000 [kcal/mol]        0.000 [kJ/mol]       0.00000000 [Eh]
    Translational G        -9.964 [kcal/mol]      -41.687 [kJ/mol]      -0.01587793 [Eh]
    Rotational G           -5.157 [kcal/mol]      -21.575 [kJ/mol]      -0.00821757 [Eh]
    Vibrational G           4.348 [kcal/mol]       18.190 [kJ/mol]       0.00692831 [Eh]
  Correction G            -10.773 [kcal/mol]      -45.072 [kJ/mol]      -0.01716719 [Eh]
  Total G, Free enthalpy at  298.15 [K]                               -548.61068215 [Eh]

*** Psi4 exiting successfully. Buy a developer a beer!
