                               Psi4 1.3.2 release

  ==> Input File <==

--------------------------------------------------------------------------
memory 144 GB

molecule {
0 1
C -0.0479167327 0.6682939561 0.0000000000
H -1.0907101856 0.9776732069 0.0000000000
H 0.4344161461 1.0815239129 0.8898543791
H 0.4344161461 1.0815239129 -0.8898543791
O -0.0410920225 -0.7509554452 0.0000000000
H 0.8712936485 -1.0420305436 0.0000000000
}

set dynamic_level 1
set basis aug-cc-pV(D+d)Z

optimize("wB97M-V")
frequencies("wB97M-V")
--------------------------------------------------------------------------

    Molecular point group: cs
  Charge       = 0
  Multiplicity = 1
  Basis Set: AUG-CC-PV(D+D)Z
    Blend: AUG-CC-PV(D+D)Z
  Basis Set: (AUG-CC-PV(D+D)Z AUX)
    Blend: AUG-CC-PVDZ-JKFIT
  @DF-RKS Final Energy:  -115.68255305330324
    Total Energy =                       -115.6825530533032378
    Molecular point group: cs
  Basis Set: AUG-CC-PV(D+D)Z
    Blend: AUG-CC-PV(D+D)Z
  Basis Set: (AUG-CC-PV(D+D)Z AUX)
    Blend: AUG-CC-PVDZ-JKFIT
  @DF-RKS Final Energy:  -115.68255243597585
    Total Energy =                       -115.6825524359758504
  Basis Set: AUG-CC-PV(D+D)Z
    Blend: AUG-CC-PV(D+D)Z
  Basis Set: (AUG-CC-PV(D+D)Z AUX)
    Blend: AUG-CC-PVDZ-JKFIT
  @DF-RKS Final Energy:  -115.68254969100607
    Total Energy =                       -115.6825496910060735
  Basis Set: AUG-CC-PV(D+D)Z
    Blend: AUG-CC-PV(D+D)Z
  Basis Set: (AUG-CC-PV(D+D)Z AUX)
    Blend: AUG-CC-PVDZ-JKFIT
  @DF-RKS Final Energy:  -115.68255476901409
    Total Energy =                       -115.6825547690140894
  @DF-RKS Final Energy:  -115.68254971484087
    Total Energy =                       -115.6825497148408743
  @DF-RKS Final Energy:  -115.68257678795538
    Total Energy =                       -115.6825767879553837
  @DF-RKS Final Energy:  -115.68252158973499
    Total Energy =                       -115.6825215897350034
  @DF-RKS Final Energy:  -115.68255044372906
    Total Energy =                       -115.6825504437290562
  @DF-RKS Final Energy:  -115.68255339811829
    Total Energy =                       -115.6825533981182872
  @DF-RKS Final Energy:  -115.68254543821756
    Total Energy =                       -115.6825454382175593
  @DF-RKS Final Energy:  -115.68255828001531
    Total Energy =                       -115.6825582800153143
  @DF-RKS Final Energy:  -115.68253890119351
    Total Energy =                       -115.6825389011935101
  @DF-RKS Final Energy:  -115.68256509842846
    Total Energy =                       -115.6825650984284550
  @DF-RKS Final Energy:  -115.68252093439853
    Total Energy =                       -115.6825209343985108
  @DF-RKS Final Energy:  -115.68257850462048
    Total Energy =                       -115.6825785046204800
  @DF-RKS Final Energy:  -115.68256827718852
    Total Energy =                       -115.6825682771885226
  @DF-RKS Final Energy:  -115.68252318571157
    Total Energy =                       -115.6825231857115597
  @DF-RKS Final Energy:  -115.68268901963052
    Total Energy =                       -115.6826890196305158
  @DF-RKS Final Energy:  -115.68268572968340
    Total Energy =                       -115.6826857296833992
  @DF-RKS Final Energy:  -115.68268843383126
    Total Energy =                       -115.6826884338312595
  **** Optimization is complete! (in 3 steps) ****
    Final optimized geometry and variables:
  @DF-RKS Final Energy:  -115.68268384561981
    Total Energy =                       -115.6826838456198061
  @DF-RKS Final Energy:  -115.68268380052903
    Total Energy =                       -115.6826838005290341
  @DF-RKS Final Energy:  -115.68268104880745
    Total Energy =                       -115.6826810488074386
  @DF-RKS Final Energy:  -115.68268221910188
    Total Energy =                       -115.6826822191018493
  @DF-RKS Final Energy:  -115.68269007643960
    Total Energy =                       -115.6826900764395987
  @DF-RKS Final Energy:  -115.68269064218860
    Total Energy =                       -115.6826906421886179
  @DF-RKS Final Energy:  -115.68269094834226
    Total Energy =                       -115.6826909483422554
  @DF-RKS Final Energy:  -115.68268993271249
    Total Energy =                       -115.6826899327124920
  @DF-RKS Final Energy:  -115.68268739995742
    Total Energy =                       -115.6826873999574161
  @DF-RKS Final Energy:  -115.68268739951084
    Total Energy =                       -115.6826873995108400
  @DF-RKS Final Energy:  -115.68269094977755
    Total Energy =                       -115.6826909497775517
  @DF-RKS Final Energy:  -115.68269094978197
    Total Energy =                       -115.6826909497819571
  @DF-RKS Final Energy:  -115.68269149771091
    Total Energy =                       -115.6826914977109055
  @DF-RKS Final Energy:  -115.68269149780615
    Total Energy =                       -115.6826914978061325
  @DF-RKS Final Energy:  -115.68269072963007
    Total Energy =                       -115.6826907296300533
  @DF-RKS Final Energy:  -115.68269073140024
    Total Energy =                       -115.6826907314002426
  Basis Set: AUG-CC-PV(D+D)Z
    Blend: AUG-CC-PV(D+D)Z
  Basis Set: (AUG-CC-PV(D+D)Z AUX)
    Blend: AUG-CC-PVDZ-JKFIT
  @DF-RKS Final Energy:  -115.68268994148049
    Total Energy =                       -115.6826899414804899
  Basis Set: AUG-CC-PV(D+D)Z
    Blend: AUG-CC-PV(D+D)Z
  Basis Set: (AUG-CC-PV(D+D)Z AUX)
    Blend: AUG-CC-PVDZ-JKFIT
  @DF-RKS Final Energy:  -115.68268994023791
    Total Energy =                       -115.6826899402379070
  Multiplicity = 1
  Basis Set: AUG-CC-PV(D+D)Z
    Blend: AUG-CC-PV(D+D)Z
  Basis Set: (AUG-CC-PV(D+D)Z AUX)
    Blend: AUG-CC-PVDZ-JKFIT
  @DF-RKS Final Energy:  -115.68268662157533
    Total Energy =                       -115.6826866215753284
    Molecular point group: c1

    Geometry (in Angstrom), charge = 0, multiplicity = 1:

       Center              X                  Y                   Z               Mass
    ------------   -----------------  -----------------  -----------------  -----------------
         C           -0.028693885347     0.728996575588    -0.000000000000    12.000000000000
         H           -1.078754147693     1.038790893789    -0.000000000000     1.007825032230
         H            0.455847372164     1.140731592257     0.895825796057     1.007825032230
         H            0.458110875782     1.144546816871    -0.897877767590     1.007825032230
         O           -0.024096126244    -0.693572078286     0.000201267521    15.994914619570
         H            0.888872086346    -0.996614444556    -0.001142290081     1.007825032230

  Charge       = 0
  Multiplicity = 1
  Basis Set: AUG-CC-PV(D+D)Z
    Blend: AUG-CC-PV(D+D)Z
  Basis Set: (AUG-CC-PV(D+D)Z AUX)
    Blend: AUG-CC-PVDZ-JKFIT

    Orbital Energies [Eh]
    ---------------------

    Doubly Occupied:

       1A    -19.357424     2A    -10.400433     3A     -1.152295
       4A     -0.802725     5A     -0.617636     6A     -0.547214
       7A     -0.532018     8A     -0.443115     9A     -0.383885

  @DF-RKS Final Energy:  -115.68268662218529

   => Energetics <=

    Nuclear Repulsion Energy =             40.1954745116188477
    One-Electron Energy =                -236.5262519560998840
    Two-Electron Energy =                  91.4503704626958722
    DFT Exchange-Correlation Energy =     -10.8758888485713925
    Empirical Dispersion Energy =           0.0000000000000000
    VV10 Nonlocal Energy =                  0.0736092081712686
    Total Energy =                       -115.6826866221853010

  Dipole Moment: [D]
     X:     1.3585      Y:     0.9788      Z:     0.0006     Total:     1.6744

  Vibration                       7                   8                   9
  Freq [cm^-1]                 293.9657           1054.3117           1087.6457
  Irrep                          App                  Ap                  Ap
  Reduced mass [u]              1.0713              1.3055              3.4965
  Force const [mDyne/A]         0.0545              0.8550              2.4370

  Vibration                       10                  11                  12
  Freq [cm^-1]                1155.2730           1360.5790           1443.2863
  Irrep                          App                  Ap                  Ap
  Reduced mass [u]              1.2736              1.2939              1.1356
  Force const [mDyne/A]         1.0015              1.4113              1.3938

  Vibration                       13                  14                  15
  Freq [cm^-1]                1459.9559           1472.8761           3026.5936
  Irrep                          App                  Ap                  Ap
  Reduced mass [u]              1.0433              1.0375              1.0352
  Force const [mDyne/A]         1.3102              1.3261              5.5869

  Vibration                       16                  17                  18
  Freq [cm^-1]                3088.8017           3151.7675           3875.6018
  Irrep                          App                  Ap                  Ap
  Reduced mass [u]              1.1056              1.0995              1.0668
  Force const [mDyne/A]         6.2149              6.4352              9.4413

  ==> Thermochemistry Components <==

  Entropy, S
    Electronic S            0.000 [cal/(mol K)]        0.000 [J/(mol K)]       0.00000000 [mEh/K] (multiplicity = 1)
    Translational S        36.324 [cal/(mol K)]      151.980 [J/(mol K)]       0.05788598 [mEh/K] (mol. weight = 32.0262 [u], P = 101325.00 [Pa])
    Rotational S           19.002 [cal/(mol K)]       79.506 [J/(mol K)]       0.03028217 [mEh/K] (symmetry no. = 1)
    Vibrational S           1.705 [cal/(mol K)]        7.133 [J/(mol K)]       0.00271666 [mEh/K]
  Total S                  57.031 [cal/(mol K)]      238.618 [J/(mol K)]       0.09088481 [mEh/K]
  Correction S              0.000 [cal/(mol K)]        0.000 [J/(mol K)]       0.00000000 [mEh/K]

  Constant volume heat capacity, Cv
    Electronic Cv           0.000 [cal/(mol K)]        0.000 [J/(mol K)]       0.00000000 [mEh/K]
    Translational Cv        2.981 [cal/(mol K)]       12.472 [J/(mol K)]       0.00475022 [mEh/K]
    Rotational Cv           2.981 [cal/(mol K)]       12.472 [J/(mol K)]       0.00475022 [mEh/K]
    Vibrational Cv          2.914 [cal/(mol K)]       12.193 [J/(mol K)]       0.00464400 [mEh/K]
  Total Cv                  8.876 [cal/(mol K)]       37.136 [J/(mol K)]       0.01414443 [mEh/K]
  Correction Cv             0.000 [cal/(mol K)]        0.000 [J/(mol K)]       0.00000000 [mEh/K]

  Constant pressure heat capacity, Cp
    Electronic Cp           0.000 [cal/(mol K)]        0.000 [J/(mol K)]       0.00000000 [mEh/K]
    Translational Cp        4.968 [cal/(mol K)]       20.786 [J/(mol K)]       0.00791703 [mEh/K]
    Rotational Cp           2.981 [cal/(mol K)]       12.472 [J/(mol K)]       0.00475022 [mEh/K]
    Vibrational Cp          2.914 [cal/(mol K)]       12.193 [J/(mol K)]       0.00464400 [mEh/K]
  Total Cp                 10.863 [cal/(mol K)]       45.451 [J/(mol K)]       0.01731124 [mEh/K]
  Correction Cp             0.000 [cal/(mol K)]        0.000 [J/(mol K)]       0.00000000 [mEh/K]

  ==> Thermochemistry Energy Analysis <==

  Raw electronic energy, E0
  Total E0, Electronic energy at well bottom at 0 [K]                 -115.68269195 [Eh]

  Zero-point energy, ZPE_vib = Sum_i nu_i / 2
    Electronic ZPE          0.000 [kcal/mol]        0.000 [kJ/mol]       0.00000000 [Eh]
    Translational ZPE       0.000 [kcal/mol]        0.000 [kJ/mol]       0.00000000 [Eh]
    Rotational ZPE          0.000 [kcal/mol]        0.000 [kJ/mol]       0.00000000 [Eh]
    Vibrational ZPE        32.123 [kcal/mol]      134.404 [kJ/mol]       0.05119193 [Eh]       11235.329 [cm^-1]
  Correction ZPE           32.123 [kcal/mol]      134.404 [kJ/mol]       0.05119193 [Eh]       11235.329 [cm^-1]
  Total ZPE, Electronic energy at 0 [K]                               -115.63150002 [Eh]

  Thermal Energy, E (includes ZPE)
    Electronic E            0.000 [kcal/mol]        0.000 [kJ/mol]       0.00000000 [Eh]
    Translational E         0.889 [kcal/mol]        3.718 [kJ/mol]       0.00141628 [Eh]
    Rotational E            0.889 [kcal/mol]        3.718 [kJ/mol]       0.00141628 [Eh]
    Vibrational E          32.456 [kcal/mol]      135.796 [kJ/mol]       0.05172199 [Eh]
  Correction E             34.233 [kcal/mol]      143.233 [kJ/mol]       0.05455455 [Eh]
  Total E, Electronic energy at  298.15 [K]                           -115.62813740 [Eh]

  Enthalpy, H_trans = E_trans + k_B * T
    Electronic H            0.000 [kcal/mol]        0.000 [kJ/mol]       0.00000000 [Eh]
    Translational H         1.481 [kcal/mol]        6.197 [kJ/mol]       0.00236046 [Eh]
    Rotational H            0.889 [kcal/mol]        3.718 [kJ/mol]       0.00141628 [Eh]
    Vibrational H          32.456 [kcal/mol]      135.796 [kJ/mol]       0.05172199 [Eh]
  Correction H             34.826 [kcal/mol]      145.712 [kJ/mol]       0.05549873 [Eh]
  Total H, Enthalpy at  298.15 [K]                                    -115.62719322 [Eh]

  Gibbs free energy, G = H - T * S
    Electronic G            0.000 [kcal/mol]        0.000 [kJ/mol]       0.00000000 [Eh]
    Translational G        -9.349 [kcal/mol]      -39.115 [kJ/mol]      -0.01489824 [Eh]
    Rotational G           -4.777 [kcal/mol]      -19.986 [kJ/mol]      -0.00761235 [Eh]
    Vibrational G          31.948 [kcal/mol]      133.669 [kJ/mol]       0.05091202 [Eh]
  Correction G             17.822 [kcal/mol]       74.568 [kJ/mol]       0.02840143 [Eh]
  Total G, Free enthalpy at  298.15 [K]                               -115.65429052 [Eh]

*** Psi4 exiting successfully. Buy a developer a beer!
