                               Psi4 1.3.2 release

  ==> Input File <==

--------------------------------------------------------------------------
memory 144 GB

molecule {
0 3
S 0.0000000000 0.0000000000 0.0000000000
S 0.0000000000 0.0000000000 1.8968845900
}

set reference uks
set dynamic_level 1
set basis aug-cc-pV(D+d)Z

optimize("wB97M-V")
frequencies("wB97M-V")
--------------------------------------------------------------------------

    Molecular point group: d2h
  Charge       = 0
  Multiplicity = 3
  Basis Set: AUG-CC-PV(D+D)Z
    Blend: AUG-CC-PV(D+D)Z
  Basis Set: (AUG-CC-PV(D+D)Z AUX)
    Blend: AUG-CC-PVDZ-JKFIT
  @DF-UKS Final Energy:  -796.33965130201068
    Total Energy =                       -796.3396513020104521
    Molecular point group: d2h
  Basis Set: AUG-CC-PV(D+D)Z
    Blend: AUG-CC-PV(D+D)Z
  Basis Set: (AUG-CC-PV(D+D)Z AUX)
    Blend: AUG-CC-PVDZ-JKFIT
  @DF-UKS Final Energy:  -796.33964828346643
    Total Energy =                       -796.3396482834666585
  Basis Set: AUG-CC-PV(D+D)Z
    Blend: AUG-CC-PV(D+D)Z
  Basis Set: (AUG-CC-PV(D+D)Z AUX)
    Blend: AUG-CC-PVDZ-JKFIT
  @DF-UKS Final Energy:  -796.33965378421476
    Total Energy =                       -796.3396537842145335
  Basis Set: AUG-CC-PV(D+D)Z
    Blend: AUG-CC-PV(D+D)Z
  Basis Set: (AUG-CC-PV(D+D)Z AUX)
    Blend: AUG-CC-PVDZ-JKFIT
  @DF-UKS Final Energy:  -796.33965766900519
    Total Energy =                       -796.3396576690053053
  @DF-UKS Final Energy:  -796.33965655372629
    Total Energy =                       -796.3396565537262859
  @DF-UKS Final Energy:  -796.33965824332847
    Total Energy =                       -796.3396582433285857
  @DF-UKS Final Energy:  -796.33965832870012
    Total Energy =                       -796.3396583287001249
  @DF-UKS Final Energy:  -796.33965806189394
    Total Energy =                       -796.3396580618937151
  @DF-UKS Final Energy:  -796.33965805030653
    Total Energy =                       -796.3396580503065252
  **** Optimization is complete! (in 3 steps) ****
    Final optimized geometry and variables:
  @DF-UKS Final Energy:  -796.33965832870024
    Total Energy =                       -796.3396583287002386
  @DF-UKS Final Energy:  -796.33965806189394
    Total Energy =                       -796.3396580618938287
  Basis Set: AUG-CC-PV(D+D)Z
    Blend: AUG-CC-PV(D+D)Z
  Basis Set: (AUG-CC-PV(D+D)Z AUX)
    Blend: AUG-CC-PVDZ-JKFIT
  @DF-UKS Final Energy:  -796.33965805030698
    Total Energy =                       -796.3396580503069799
  Basis Set: AUG-CC-PV(D+D)Z
    Blend: AUG-CC-PV(D+D)Z
  Basis Set: (AUG-CC-PV(D+D)Z AUX)
    Blend: AUG-CC-PVDZ-JKFIT
  @DF-UKS Final Energy:  -796.33965832870058
    Total Energy =                       -796.3396583287004660
  Multiplicity = 3
  Basis Set: AUG-CC-PV(D+D)Z
    Blend: AUG-CC-PV(D+D)Z
  Basis Set: (AUG-CC-PV(D+D)Z AUX)
    Blend: AUG-CC-PVDZ-JKFIT
  @DF-UKS Final Energy:  -796.33965806189417
    Total Energy =                       -796.3396580618941698
    Molecular point group: d2h

    Geometry (in Angstrom), charge = 0, multiplicity = 3:

       Center              X                  Y                   Z               Mass
    ------------   -----------------  -----------------  -----------------  -----------------
         S            0.000000000000     0.000000000000    -0.946421837920    31.972071174400
         S            0.000000000000     0.000000000000     0.946421837920    31.972071174400

  Charge       = 0
  Multiplicity = 3
  Basis Set: AUG-CC-PV(D+D)Z
    Blend: AUG-CC-PV(D+D)Z
  Basis Set: (AUG-CC-PV(D+D)Z AUX)
    Blend: AUG-CC-PVDZ-JKFIT

    Orbital Energies [Eh]
    ---------------------

    Alpha Occupied:

       1B1u  -89.257420     1Ag   -89.257419     2Ag    -8.176295
       2B1u   -8.176279     1B3u   -6.084682     1B2u   -6.084682
       1B2g   -6.084641     1B3g   -6.084641     3Ag    -6.084091
       3B1u   -6.083342     4Ag    -0.967196     4B1u   -0.748871
       5Ag    -0.500296     2B3u   -0.480686     2B2u   -0.480686
       2B2g   -0.333881     2B3g   -0.333881

    Alpha Virtual:

       5B1u    0.031396     6Ag     0.076294     3B3u    0.083296
       3B2u    0.083296     7Ag     0.095013     6B1u    0.115196
       3B3g    0.116234     3B2g    0.116234     7B1u    0.224040
       8Ag     0.240333     1B1g    0.240335     4B2u    0.268952
       4B3u    0.268952     9Ag     0.353445     8B1u    0.373171
       1Au     0.373174     4B2g    0.515076     4B3g    0.515076
       9B1u    0.541388     5B2u    0.670913     5B3u    0.670913
      10B1u    0.730086    10Ag     0.741836     5B3g    0.772007
       5B2g    0.772007     6B3u    0.835898     6B2u    0.835898
      11Ag     0.849095    12Ag     0.866461     2B1g    0.866472
      11B1u    0.923876     2Au     0.923886    13Ag     0.935508
       6B2g    1.021748     6B3g    1.021748    12B1u    1.165574
      13B1u    1.568451     7B3u    4.574191     7B2u    4.574191
      14Ag     4.620950     3B1g    4.620956    14B1u    4.668130
       3Au     4.668136    15Ag     4.674060     7B2g    4.779820
       7B3g    4.779820    15B1u    4.839288

    Beta Occupied:

       1Ag   -89.251241     1B1u  -89.251241     2Ag    -8.170082
       2B1u   -8.169982     3Ag    -6.080224     3B1u   -6.079473
       1B3u   -6.071422     1B2u   -6.071422     1B2g   -6.071365
       1B3g   -6.071365     4Ag    -0.941519     4B1u   -0.693735
       5Ag    -0.473702     2B3u   -0.425241     2B2u   -0.425241

    Beta Virtual:

       2B2g   -0.064215     2B3g   -0.064215     5B1u    0.033252
       6Ag     0.074670     3B2u    0.082738     3B3u    0.082738
       7Ag     0.096816     3B3g    0.117947     3B2g    0.117947
       6B1u    0.131654     7B1u    0.223348     1B1g    0.255284
       8Ag     0.255285     4B2u    0.298838     4B3u    0.298838
       9Ag     0.363339     8B1u    0.400226     1Au     0.400227
       4B2g    0.529449     4B3g    0.529449     9B1u    0.552707
       5B2u    0.694446     5B3u    0.694446    10B1u    0.742712
      10Ag     0.766437     5B3g    0.794668     5B2g    0.794668
       6B3u    0.848371     6B2u    0.848371    11Ag     0.854819
      12Ag     0.895515     2B1g    0.895526    11B1u    0.950142
       2Au     0.950155    13Ag     0.950570     6B2g    1.040586
       6B3g    1.040586    12B1u    1.182244    13B1u    1.591992
       7B3u    4.581443     7B2u    4.581443    14Ag     4.636982
       3B1g    4.637006    15Ag     4.678317    14B1u    4.684304
       3Au     4.684329     7B2g    4.788224     7B3g    4.788224
      15B1u    4.845879

    Final Occupation by Irrep:
             Ag   B1g   B2g   B3g    Au   B1u   B2u   B3u
    DOCC [     5,    0,    1,    1,    0,    4,    2,    2 ]
    SOCC [     0,    0,    1,    1,    0,    0,    0,    0 ]

  @DF-UKS Final Energy:  -796.33965805030721

   => Energetics <=

    Nuclear Repulsion Energy =             71.5692308142905063
    One-Electron Energy =               -1241.5799776504559304
    Two-Electron Energy =                 413.1182036665606461
    DFT Exchange-Correlation Energy =     -39.5807078901150149
    Empirical Dispersion Energy =           0.0000000000000000
    VV10 Nonlocal Energy =                  0.1335930094126374
    Total Energy =                       -796.3396580503072073

  UHF NO Occupations:
  HONO-2 :    2B3u 1.9980973
  HONO-1 :    2B3g 1.0000000
  HONO-0 :    2B2g 1.0000000
  LUNO+0 :    3B3u 0.0019027
  LUNO+1 :    3B2u 0.0019027
  LUNO+2 :    5B1u 0.0002223
  LUNO+3 :    6 Ag 0.0001727

Computation Completed

Properties will be evaluated at   0.000000,   0.000000,   0.000000 [a0]

Properties computed using the SCF density matrix

  Nuclear Dipole Moment: [e a0]
     X:     0.0000      Y:     0.0000      Z:     0.0000

  Electronic Dipole Moment: [e a0]
     X:     0.0000      Y:     0.0000      Z:     0.0000

  Dipole Moment: [e a0]
     X:     0.0000      Y:     0.0000      Z:     0.0000     Total:     0.0000

  Dipole Moment: [D]
     X:     0.0000      Y:     0.0000      Z:     0.0000     Total:     0.0000

*** tstop() called on bp1-compute00099.data.bp.acrc.priv at Tue Apr 27 18:03:14 2021
Module time:
	user time   =     127.48 seconds =       2.12 minutes
	system time =       5.36 seconds =       0.09 minutes
	total time  =          6 seconds =       0.10 minutes
Total time:
	user time   =    1572.64 seconds =      26.21 minutes
	system time =      65.45 seconds =       1.09 minutes
	total time  =         69 seconds =       1.15 minutes

         ----------------------------------------------------------
                                   FINDIF
                     R. A. King and Jonathon Misiewicz
         ---------------------------------------------------------

  Computing second-derivative from energies using projected,
  symmetry-adapted, cartesian coordinates.

  3 energies passed in, including the reference geometry.
    Using 3-point formula.
    Energy without displacement: -796.3396583287
    Check energies below for precision!
    0: -1 :      -796.3396580619
    0: 1  :      -796.3396580503

-------------------------------------------------------------

  ==> Harmonic Vibrational Analysis <==

  non-mass-weighted Hessian:       Symmetric? True   Hermitian? True   Lin Dep Dim?  5 (0)
  projection of translations (True) and rotations (True) removed 5 degrees of freedom (5)
  total projector:                 Symmetric? True   Hermitian? True   Lin Dep Dim?  5 (5)
  mass-weighted Hessian:           Symmetric? True   Hermitian? True   Lin Dep Dim?  5 (0)
  pre-proj  low-frequency mode:    0.0000  [cm^-1]
  pre-proj  low-frequency mode:    0.0000  [cm^-1]
  pre-proj  low-frequency mode:    0.0000  [cm^-1]
  pre-proj  low-frequency mode:    0.0000  [cm^-1]
  pre-proj  low-frequency mode:    0.0000  [cm^-1]
  pre-proj  all modes:['0.0000' '0.0000' '0.0000' '0.0000' '0.0000' '759.1229']
  projected mass-weighted Hessian: Symmetric? True   Hermitian? True   Lin Dep Dim?  5 (5)
  post-proj low-frequency mode:    0.0000i [cm^-1] (TR)
  post-proj low-frequency mode:    0.0000  [cm^-1] (TR)
  post-proj low-frequency mode:    0.0000  [cm^-1] (TR)
  post-proj low-frequency mode:    0.0000  [cm^-1] (TR)
  post-proj low-frequency mode:    0.0000  [cm^-1] (TR)
  post-proj  all modes:['0.0000i' '0.0000' '0.0000' '0.0000' '0.0000' '759.1229']

  Vibration                       6
  Freq [cm^-1]                 759.1229
  Irrep                           Ag
  Reduced mass [u]             31.9721
  Force const [mDyne/A]        10.8554
  Turning point v=0 [a0]        0.0704
  RMS dev v=0 [a0 u^1/2]        0.2816
  Char temp [K]               1092.2089
  ----------------------------------------------------------------------------------
      1   S                0.00  0.00  0.71
      2   S                0.00  0.00 -0.71

  ==> Thermochemistry Components <==

  Entropy, S
    Electronic S            2.183 [cal/(mol K)]        9.134 [J/(mol K)]       0.00347910 [mEh/K] (multiplicity = 3)
    Translational S        38.385 [cal/(mol K)]      160.603 [J/(mol K)]       0.06117054 [mEh/K] (mol. weight = 63.9441 [u], P = 101325.00 [Pa])
    Rotational S           13.641 [cal/(mol K)]       57.074 [J/(mol K)]       0.02173834 [mEh/K] (symmetry no. = 2)
    Vibrational S           0.243 [cal/(mol K)]        1.018 [J/(mol K)]       0.00038766 [mEh/K]
  Total S                  54.453 [cal/(mol K)]      227.829 [J/(mol K)]       0.08677564 [mEh/K]
  Correction S              0.000 [cal/(mol K)]        0.000 [J/(mol K)]       0.00000000 [mEh/K]

  Constant volume heat capacity, Cv
    Electronic Cv           0.000 [cal/(mol K)]        0.000 [J/(mol K)]       0.00000000 [mEh/K]
    Translational Cv        2.981 [cal/(mol K)]       12.472 [J/(mol K)]       0.00475022 [mEh/K]
    Rotational Cv           1.987 [cal/(mol K)]        8.314 [J/(mol K)]       0.00316681 [mEh/K]
    Vibrational Cv          0.720 [cal/(mol K)]        3.014 [J/(mol K)]       0.00114812 [mEh/K]
  Total Cv                  5.688 [cal/(mol K)]       23.801 [J/(mol K)]       0.00906515 [mEh/K]
  Correction Cv             0.000 [cal/(mol K)]        0.000 [J/(mol K)]       0.00000000 [mEh/K]

  Constant pressure heat capacity, Cp
    Electronic Cp           0.000 [cal/(mol K)]        0.000 [J/(mol K)]       0.00000000 [mEh/K]
    Translational Cp        4.968 [cal/(mol K)]       20.786 [J/(mol K)]       0.00791703 [mEh/K]
    Rotational Cp           1.987 [cal/(mol K)]        8.314 [J/(mol K)]       0.00316681 [mEh/K]
    Vibrational Cp          0.720 [cal/(mol K)]        3.014 [J/(mol K)]       0.00114812 [mEh/K]
  Total Cp                  7.676 [cal/(mol K)]       32.115 [J/(mol K)]       0.01223196 [mEh/K]
  Correction Cp             0.000 [cal/(mol K)]        0.000 [J/(mol K)]       0.00000000 [mEh/K]

  ==> Thermochemistry Energy Analysis <==

  Raw electronic energy, E0
  Total E0, Electronic energy at well bottom at 0 [K]                 -796.33965833 [Eh]

  Zero-point energy, ZPE_vib = Sum_i nu_i / 2
    Electronic ZPE          0.000 [kcal/mol]        0.000 [kJ/mol]       0.00000000 [Eh]
    Translational ZPE       0.000 [kcal/mol]        0.000 [kJ/mol]       0.00000000 [Eh]
    Rotational ZPE          0.000 [kcal/mol]        0.000 [kJ/mol]       0.00000000 [Eh]
    Vibrational ZPE         1.085 [kcal/mol]        4.541 [kJ/mol]       0.00172941 [Eh]         379.561 [cm^-1]
  Correction ZPE            1.085 [kcal/mol]        4.541 [kJ/mol]       0.00172941 [Eh]         379.561 [cm^-1]
  Total ZPE, Electronic energy at 0 [K]                               -796.33792892 [Eh]

  Thermal Energy, E (includes ZPE)
    Electronic E            0.000 [kcal/mol]        0.000 [kJ/mol]       0.00000000 [Eh]
    Translational E         0.889 [kcal/mol]        3.718 [kJ/mol]       0.00141628 [Eh]
    Rotational E            0.592 [kcal/mol]        2.479 [kJ/mol]       0.00094418 [Eh]
    Vibrational E           1.142 [kcal/mol]        4.780 [kJ/mol]       0.00182046 [Eh]
  Correction E              2.624 [kcal/mol]       10.977 [kJ/mol]       0.00418092 [Eh]
  Total E, Electronic energy at  298.15 [K]                           -796.33547741 [Eh]

  Enthalpy, H_trans = E_trans + k_B * T
    Electronic H            0.000 [kcal/mol]        0.000 [kJ/mol]       0.00000000 [Eh]
    Translational H         1.481 [kcal/mol]        6.197 [kJ/mol]       0.00236046 [Eh]
    Rotational H            0.592 [kcal/mol]        2.479 [kJ/mol]       0.00094418 [Eh]
    Vibrational H           1.142 [kcal/mol]        4.780 [kJ/mol]       0.00182046 [Eh]
  Correction H              3.216 [kcal/mol]       13.456 [kJ/mol]       0.00512510 [Eh]
  Total H, Enthalpy at  298.15 [K]                                    -796.33453323 [Eh]

  Gibbs free energy, G = H - T * S
    Electronic G           -0.651 [kcal/mol]       -2.723 [kJ/mol]      -0.00103729 [Eh]
    Translational G        -9.963 [kcal/mol]      -41.686 [kJ/mol]      -0.01587754 [Eh]
    Rotational G           -3.475 [kcal/mol]      -14.538 [kJ/mol]      -0.00553710 [Eh]
    Vibrational G           1.070 [kcal/mol]        4.476 [kJ/mol]       0.00170488 [Eh]
  Correction G            -13.019 [kcal/mol]      -54.471 [kJ/mol]      -0.02074705 [Eh]
  Total G, Free enthalpy at  298.15 [K]                               -796.36040538 [Eh]

    Psi4 stopped on: Tuesday, 27 April 2021 06:03PM
    Psi4 wall time for execution: 0:01:09.15

*** Psi4 exiting successfully. Buy a developer a beer!
