                               Psi4 1.3.2 release

  ==> Input File <==

--------------------------------------------------------------------------
memory 144 GB

molecule {
0 3
S 0.0000000000 0.0000000000 0.0000000000
O 0.0000000000 0.0000000000 1.4862145500
}

set reference uks
set dynamic_level 1
set basis aug-cc-pV(D+d)Z

optimize("wB97M-V")
frequencies("wB97M-V")
--------------------------------------------------------------------------

    Molecular point group: c2v
  Charge       = 0
  Multiplicity = 3
  Basis Set: AUG-CC-PV(D+D)Z
    Blend: AUG-CC-PV(D+D)Z
  Basis Set: (AUG-CC-PV(D+D)Z AUX)
    Blend: AUG-CC-PVDZ-JKFIT
  @DF-UKS Final Energy:  -473.34075627725048
    Total Energy =                       -473.3407562772504775
    Molecular point group: c2v
  Basis Set: AUG-CC-PV(D+D)Z
    Blend: AUG-CC-PV(D+D)Z
  Basis Set: (AUG-CC-PV(D+D)Z AUX)
    Blend: AUG-CC-PVDZ-JKFIT
  @DF-UKS Final Energy:  -473.34077338430291
    Total Energy =                       -473.3407733843028495
  Basis Set: AUG-CC-PV(D+D)Z
    Blend: AUG-CC-PV(D+D)Z
  Basis Set: (AUG-CC-PV(D+D)Z AUX)
    Blend: AUG-CC-PVDZ-JKFIT
  @DF-UKS Final Energy:  -473.34073778295169
    Total Energy =                       -473.3407377829517486
  Basis Set: AUG-CC-PV(D+D)Z
    Blend: AUG-CC-PV(D+D)Z
  Basis Set: (AUG-CC-PV(D+D)Z AUX)
    Blend: AUG-CC-PVDZ-JKFIT
  @DF-UKS Final Energy:  -473.34086277777715
    Total Energy =                       -473.3408627777772040
  @DF-UKS Final Energy:  -473.34086725674501
    Total Energy =                       -473.3408672567450708
  @DF-UKS Final Energy:  -473.34085696971209
    Total Energy =                       -473.3408569697120356
  @DF-UKS Final Energy:  -473.34087277265530
    Total Energy =                       -473.3408727726553593
  @DF-UKS Final Energy:  -473.34087226983746
    Total Energy =                       -473.3408722698374049
  @DF-UKS Final Energy:  -473.34087196821520
    Total Energy =                       -473.3408719682153105
  **** Optimization is complete! (in 3 steps) ****
    Final optimized geometry and variables:
  @DF-UKS Final Energy:  -473.34087277226672
    Total Energy =                       -473.3408727722667777
  @DF-UKS Final Energy:  -473.34087226999998
    Total Energy =                       -473.3408722699998634
  Basis Set: AUG-CC-PV(D+D)Z
    Blend: AUG-CC-PV(D+D)Z
  Basis Set: (AUG-CC-PV(D+D)Z AUX)
    Blend: AUG-CC-PVDZ-JKFIT
  @DF-UKS Final Energy:  -473.34087196779376
    Total Energy =                       -473.3408719677937597
  Basis Set: AUG-CC-PV(D+D)Z
    Blend: AUG-CC-PV(D+D)Z
  Basis Set: (AUG-CC-PV(D+D)Z AUX)
    Blend: AUG-CC-PVDZ-JKFIT
  @DF-UKS Final Energy:  -473.34087277226678
    Total Energy =                       -473.3408727722668345
  Multiplicity = 3
  Basis Set: AUG-CC-PV(D+D)Z
    Blend: AUG-CC-PV(D+D)Z
  Basis Set: (AUG-CC-PV(D+D)Z AUX)
    Blend: AUG-CC-PVDZ-JKFIT
  @DF-UKS Final Energy:  -473.34087226999992
    Total Energy =                       -473.3408722699999771
    Molecular point group: c2v

    Geometry (in Angstrom), charge = 0, multiplicity = 3:

       Center              X                  Y                   Z               Mass
    ------------   -----------------  -----------------  -----------------  -----------------
         S            0.000000000000     0.000000000000    -0.498859965674    31.972071174400
         O            0.000000000000     0.000000000000     0.997166081092    15.994914619570

  Charge       = 0
  Multiplicity = 3
  Basis Set: AUG-CC-PV(D+D)Z
    Blend: AUG-CC-PV(D+D)Z
  Basis Set: (AUG-CC-PV(D+D)Z AUX)
    Blend: AUG-CC-PVDZ-JKFIT

    Orbital Energies [Eh]
    ---------------------

    Alpha Occupied:

       1A1   -89.303770     2A1   -19.436355     3A1    -8.217707
       1B2    -6.126849     1B1    -6.126849     4A1    -6.125591
       5A1    -1.224659     6A1    -0.809007     2B1    -0.568419
       2B2    -0.568419     7A1    -0.566921     3B2    -0.359608
       3B1    -0.359608

    Alpha Virtual:

       8A1     0.037381     9A1     0.068221     4B2     0.080953
       4B1     0.080953    10A1     0.141602    11A1     0.189790
       5B1     0.203010     5B2     0.203010    12A1     0.275058
       1A2     0.275059    13A1     0.346302     6B2     0.377044
       6B1     0.377044    14A1     0.538259     7B2     0.654154
       7B1     0.654154    15A1     0.671439    16A1     0.831011
       8B2     0.852273     8B1     0.852273     2A2     0.858892
      17A1     0.858897    18A1     0.913323     3A2     0.913324
      19A1     1.056565     9B1     1.121442     9B2     1.121442
      20A1     1.299629    10B1     1.359390    10B2     1.359390
      21A1     1.547154    22A1     2.601592     4A2     3.252412
      23A1     3.252431    11B1     3.338176    11B2     3.338176
      24A1     3.383116    25A1     4.602375     5A2     4.602379
      12B2     4.684106    12B1     4.684106    26A1     4.758068

    Beta Occupied:

       1A1   -89.296493     2A1   -19.414575     3A1    -8.210384
       4A1    -6.121163     1B2    -6.111188     1B1    -6.111188
       5A1    -1.183935     6A1    -0.746454     7A1    -0.531064
       2B2    -0.495393     2B1    -0.495393

    Beta Virtual:

       3B2    -0.049694     3B1    -0.049694     8A1     0.042750
       9A1     0.064339     4B1     0.082306     4B2     0.082306
      10A1     0.158326    11A1     0.193401     5B2     0.210783
       5B1     0.210783    12A1     0.298942     1A2     0.298943
      13A1     0.354211     6B2     0.405726     6B1     0.405726
      14A1     0.553945     7B2     0.679072     7B1     0.679072
      15A1     0.686892    16A1     0.840208     8B2     0.871191
       8B1     0.871191    17A1     0.887460     2A2     0.887461
      18A1     0.929376     3A2     0.929378    19A1     1.088359
       9B2     1.148194     9B1     1.148194    20A1     1.312334
      10B2     1.387917    10B1     1.387917    21A1     1.566487
      22A1     2.621096     4A2     3.309114    23A1     3.309134
      11B2     3.371081    11B1     3.371081    24A1     3.414795
       5A2     4.621588    25A1     4.621595    12B2     4.694795
      12B1     4.694795    26A1     4.766040

    Final Occupation by Irrep:
             A1    A2    B1    B2
    DOCC [     7,    0,    2,    2 ]
    SOCC [     0,    0,    1,    1 ]

  @DF-UKS Final Energy:  -473.34087196779359

   => Energetics <=

    Nuclear Repulsion Energy =             45.2764061910264672
    One-Electron Energy =                -742.4288058385218392
    Two-Electron Energy =                 249.7305545698669107
    DFT Exchange-Correlation Energy =     -26.0198565413597898
    Empirical Dispersion Energy =           0.0000000000000000
    VV10 Nonlocal Energy =                  0.1008296511946572
    Total Energy =                       -473.3408719677935892

  UHF NO Occupations:
  HONO-2 :    2 B1 1.9982095
  HONO-1 :    3 B2 1.0000000
  HONO-0 :    3 B1 1.0000000
  LUNO+0 :    4 B1 0.0017905
  LUNO+1 :    4 B2 0.0017905
  LUNO+2 :    8 A1 0.0002680
  LUNO+3 :    9 A1 0.0002289

Computation Completed

Properties will be evaluated at   0.000000,   0.000000,   0.000000 [a0]

Properties computed using the SCF density matrix

  Nuclear Dipole Moment: [e a0]
     X:     0.0000      Y:     0.0000      Z:    -0.0084

  Electronic Dipole Moment: [e a0]
     X:     0.0000      Y:     0.0000      Z:    -0.6102

  Dipole Moment: [e a0]
     X:     0.0000      Y:     0.0000      Z:    -0.6185     Total:     0.6185

  Dipole Moment: [D]
     X:     0.0000      Y:     0.0000      Z:    -1.5722     Total:     1.5722

*** tstop() called on bp1-compute00107.data.bp.acrc.priv at Tue Apr 27 18:02:42 2021
Module time:
	user time   =     145.71 seconds =       2.43 minutes
	system time =       6.20 seconds =       0.10 minutes
	total time  =          6 seconds =       0.10 minutes
Total time:
	user time   =    1762.56 seconds =      29.38 minutes
	system time =      76.62 seconds =       1.28 minutes
	total time  =         77 seconds =       1.28 minutes

         ----------------------------------------------------------
                                   FINDIF
                     R. A. King and Jonathon Misiewicz
         ---------------------------------------------------------

  Computing second-derivative from energies using projected,
  symmetry-adapted, cartesian coordinates.

  3 energies passed in, including the reference geometry.
    Using 3-point formula.
    Energy without displacement: -473.3408727723
    Check energies below for precision!
    0: -1 :      -473.3408722700
    0: 1  :      -473.3408719678

-------------------------------------------------------------

  ==> Harmonic Vibrational Analysis <==

  non-mass-weighted Hessian:       Symmetric? True   Hermitian? True   Lin Dep Dim?  5 (0)
  projection of translations (True) and rotations (True) removed 5 degrees of freedom (5)
  total projector:                 Symmetric? True   Hermitian? True   Lin Dep Dim?  5 (5)
  mass-weighted Hessian:           Symmetric? True   Hermitian? True   Lin Dep Dim?  5 (0)
  pre-proj  low-frequency mode:    0.0000  [cm^-1]
  pre-proj  low-frequency mode:    0.0000  [cm^-1]
  pre-proj  low-frequency mode:    0.0000  [cm^-1]
  pre-proj  low-frequency mode:    0.0000  [cm^-1]
  pre-proj  low-frequency mode:    0.0000  [cm^-1]
  pre-proj  all modes:['0.0000' '0.0000' '0.0000' '0.0000' '0.0000' '1175.2462']
  projected mass-weighted Hessian: Symmetric? True   Hermitian? True   Lin Dep Dim?  5 (5)
  post-proj low-frequency mode:    0.0000i [cm^-1] (TR)
  post-proj low-frequency mode:    0.0000  [cm^-1] (TR)
  post-proj low-frequency mode:    0.0000  [cm^-1] (TR)
  post-proj low-frequency mode:    0.0000  [cm^-1] (TR)
  post-proj low-frequency mode:    0.0000  [cm^-1] (TR)
  post-proj  all modes:['0.0000i' '0.0000' '0.0000' '0.0000' '0.0000' '1175.2462']

  Vibration                       6
  Freq [cm^-1]                1175.2462
  Irrep                           A1
  Reduced mass [u]             19.1932
  Force const [mDyne/A]        15.6191
  Turning point v=0 [a0]        0.0731
  RMS dev v=0 [a0 u^1/2]        0.2263
  Char temp [K]               1690.9177
  ----------------------------------------------------------------------------------
      1   S                0.00  0.00 -0.45
      2   O                0.00  0.00  0.89

  ==> Thermochemistry Components <==

  Entropy, S
    Electronic S            2.183 [cal/(mol K)]        9.134 [J/(mol K)]       0.00347910 [mEh/K] (multiplicity = 3)
    Translational S        37.528 [cal/(mol K)]      157.018 [J/(mol K)]       0.05980487 [mEh/K] (mol. weight = 47.9670 [u], P = 101325.00 [Pa])
    Rotational S           13.279 [cal/(mol K)]       55.560 [J/(mol K)]       0.02116167 [mEh/K] (symmetry no. = 1)
    Vibrational S           0.046 [cal/(mol K)]        0.192 [J/(mol K)]       0.00007298 [mEh/K]
  Total S                  53.036 [cal/(mol K)]      221.904 [J/(mol K)]       0.08451861 [mEh/K]
  Correction S              0.000 [cal/(mol K)]        0.000 [J/(mol K)]       0.00000000 [mEh/K]

  Constant volume heat capacity, Cv
    Electronic Cv           0.000 [cal/(mol K)]        0.000 [J/(mol K)]       0.00000000 [mEh/K]
    Translational Cv        2.981 [cal/(mol K)]       12.472 [J/(mol K)]       0.00475022 [mEh/K]
    Rotational Cv           1.987 [cal/(mol K)]        8.314 [J/(mol K)]       0.00316681 [mEh/K]
    Vibrational Cv          0.222 [cal/(mol K)]        0.927 [J/(mol K)]       0.00035314 [mEh/K]
  Total Cv                  5.190 [cal/(mol K)]       21.713 [J/(mol K)]       0.00827017 [mEh/K]
  Correction Cv             0.000 [cal/(mol K)]        0.000 [J/(mol K)]       0.00000000 [mEh/K]

  Constant pressure heat capacity, Cp
    Electronic Cp           0.000 [cal/(mol K)]        0.000 [J/(mol K)]       0.00000000 [mEh/K]
    Translational Cp        4.968 [cal/(mol K)]       20.786 [J/(mol K)]       0.00791703 [mEh/K]
    Rotational Cp           1.987 [cal/(mol K)]        8.314 [J/(mol K)]       0.00316681 [mEh/K]
    Vibrational Cp          0.222 [cal/(mol K)]        0.927 [J/(mol K)]       0.00035314 [mEh/K]
  Total Cp                  7.177 [cal/(mol K)]       30.028 [J/(mol K)]       0.01143698 [mEh/K]
  Correction Cp             0.000 [cal/(mol K)]        0.000 [J/(mol K)]       0.00000000 [mEh/K]

  ==> Thermochemistry Energy Analysis <==

  Raw electronic energy, E0
  Total E0, Electronic energy at well bottom at 0 [K]                 -473.34087277 [Eh]

  Zero-point energy, ZPE_vib = Sum_i nu_i / 2
    Electronic ZPE          0.000 [kcal/mol]        0.000 [kJ/mol]       0.00000000 [Eh]
    Translational ZPE       0.000 [kcal/mol]        0.000 [kJ/mol]       0.00000000 [Eh]
    Rotational ZPE          0.000 [kcal/mol]        0.000 [kJ/mol]       0.00000000 [Eh]
    Vibrational ZPE         1.680 [kcal/mol]        7.030 [kJ/mol]       0.00267741 [Eh]         587.623 [cm^-1]
  Correction ZPE            1.680 [kcal/mol]        7.030 [kJ/mol]       0.00267741 [Eh]         587.623 [cm^-1]
  Total ZPE, Electronic energy at 0 [K]                               -473.33819536 [Eh]

  Thermal Energy, E (includes ZPE)
    Electronic E            0.000 [kcal/mol]        0.000 [kJ/mol]       0.00000000 [Eh]
    Translational E         0.889 [kcal/mol]        3.718 [kJ/mol]       0.00141628 [Eh]
    Rotational E            0.592 [kcal/mol]        2.479 [kJ/mol]       0.00094418 [Eh]
    Vibrational E           1.692 [kcal/mol]        7.078 [kJ/mol]       0.00269591 [Eh]
  Correction E              3.173 [kcal/mol]       13.275 [kJ/mol]       0.00505637 [Eh]
  Total E, Electronic energy at  298.15 [K]                           -473.33581640 [Eh]

  Enthalpy, H_trans = E_trans + k_B * T
    Electronic H            0.000 [kcal/mol]        0.000 [kJ/mol]       0.00000000 [Eh]
    Translational H         1.481 [kcal/mol]        6.197 [kJ/mol]       0.00236046 [Eh]
    Rotational H            0.592 [kcal/mol]        2.479 [kJ/mol]       0.00094418 [Eh]
    Vibrational H           1.692 [kcal/mol]        7.078 [kJ/mol]       0.00269591 [Eh]
  Correction H              3.765 [kcal/mol]       15.754 [kJ/mol]       0.00600056 [Eh]
  Total H, Enthalpy at  298.15 [K]                                    -473.33487222 [Eh]

  Gibbs free energy, G = H - T * S
    Electronic G           -0.651 [kcal/mol]       -2.723 [kJ/mol]      -0.00103729 [Eh]
    Translational G        -9.708 [kcal/mol]      -40.617 [kJ/mol]      -0.01547036 [Eh]
    Rotational G           -3.367 [kcal/mol]      -14.086 [kJ/mol]      -0.00536517 [Eh]
    Vibrational G           1.678 [kcal/mol]        7.021 [kJ/mol]       0.00267415 [Eh]
  Correction G            -12.047 [kcal/mol]      -50.406 [kJ/mol]      -0.01919867 [Eh]
  Total G, Free enthalpy at  298.15 [K]                               -473.36007144 [Eh]

    Psi4 stopped on: Tuesday, 27 April 2021 06:02PM
    Psi4 wall time for execution: 0:01:17.61

*** Psi4 exiting successfully. Buy a developer a beer!
