                               Psi4 1.3.2 release

  ==> Input File <==

--------------------------------------------------------------------------
memory 144 GB

molecule {
0 1
B 0.0000000000 0.0000000000 0.0000000000
H 0.0000000000 0.0000000000 1.1899000000
H 1.0304836280 0.0000000000 -0.5949500000
H -1.0304836280 -0.0000000000 -0.5949500000
}

set dynamic_level 1
set basis cc-pV(T+d)Z

optimize("wB97X-V")
frequencies("wB97X-V")
--------------------------------------------------------------------------

    Molecular point group: c2v
  Charge       = 0
  Multiplicity = 1
  Basis Set: CC-PV(T+D)Z
    Blend: CC-PV(T+D)Z
  Basis Set: (CC-PV(T+D)Z AUX)
    Blend: CC-PVTZ-JKFIT
  @DF-RKS Final Energy:   -26.60536210813681
    Total Energy =                        -26.6053621081368128
    Molecular point group: c2v
  Basis Set: CC-PV(T+D)Z
    Blend: CC-PV(T+D)Z
  Basis Set: (CC-PV(T+D)Z AUX)
    Blend: CC-PVTZ-JKFIT
  @DF-RKS Final Energy:   -26.60535989841046
    Total Energy =                        -26.6053598984104589
  Basis Set: CC-PV(T+D)Z
    Blend: CC-PV(T+D)Z
  Basis Set: (CC-PV(T+D)Z AUX)
    Blend: CC-PVTZ-JKFIT
  @DF-RKS Final Energy:   -26.60535988851413
    Total Energy =                        -26.6053598885141298
  Basis Set: CC-PV(T+D)Z
    Blend: CC-PV(T+D)Z
  Basis Set: (CC-PV(T+D)Z AUX)
    Blend: CC-PVTZ-JKFIT
  @DF-RKS Final Energy:   -26.60534891111548
    Total Energy =                        -26.6053489111154811
  @DF-RKS Final Energy:   -26.60537016421768
    Total Energy =                        -26.6053701642176783
  @DF-RKS Final Energy:   -26.60534891990912
    Total Energy =                        -26.6053489199091153
  @DF-RKS Final Energy:   -26.60537015542339
    Total Energy =                        -26.6053701554233868
  @DF-RKS Final Energy:   -26.60537999747475
    Total Energy =                        -26.6053799974747527
  @DF-RKS Final Energy:   -26.60537781392351
    Total Energy =                        -26.6053778139235071
  @DF-RKS Final Energy:   -26.60537781460996
    Total Energy =                        -26.6053778146099553
  @DF-RKS Final Energy:   -26.60537742544861
    Total Energy =                        -26.6053774254486086
  @DF-RKS Final Energy:   -26.60537750837350
    Total Energy =                        -26.6053775083734934
  @DF-RKS Final Energy:   -26.60537742592847
    Total Energy =                        -26.6053774259284701
  @DF-RKS Final Energy:   -26.60537750776933
    Total Energy =                        -26.6053775077693331
  **** Optimization is complete! (in 2 steps) ****
    Final optimized geometry and variables:
  @DF-RKS Final Energy:   -26.60537999748844
    Total Energy =                        -26.6053799974884413
  @DF-RKS Final Energy:   -26.60537781393883
    Total Energy =                        -26.6053778139388335
  @DF-RKS Final Energy:   -26.60537781455135
    Total Energy =                        -26.6053778145513462
  @DF-RKS Final Energy:   -26.60537742542880
    Total Energy =                        -26.6053774254287987
  @DF-RKS Final Energy:   -26.60537750836101
    Total Energy =                        -26.6053775083610091
  @DF-RKS Final Energy:   -26.60537742592510
    Total Energy =                        -26.6053774259251021
  @DF-RKS Final Energy:   -26.60537750775309
    Total Energy =                        -26.6053775077530901
  @DF-RKS Final Energy:   -26.60537999748845
    Total Energy =                        -26.6053799974884484
  @DF-RKS Final Energy:   -26.60537781393885
    Total Energy =                        -26.6053778139388548
  @DF-RKS Final Energy:   -26.60537781455138
    Total Energy =                        -26.6053778145513817
  @DF-RKS Final Energy:   -26.60537742542882
    Total Energy =                        -26.6053774254288129
  @DF-RKS Final Energy:   -26.60537750836101
    Total Energy =                        -26.6053775083610056
  @DF-RKS Final Energy:   -26.60537742592510
    Total Energy =                        -26.6053774259250950
  @DF-RKS Final Energy:   -26.60537750775311
    Total Energy =                        -26.6053775077531149
  @DF-RKS Final Energy:   -26.60537726069472
    Total Energy =                        -26.6053772606947199
  @DF-RKS Final Energy:   -26.60537718291559
    Total Energy =                        -26.6053771829155821
  @DF-RKS Final Energy:   -26.60537340205168
    Total Energy =                        -26.6053734020516792
  @DF-RKS Final Energy:   -26.60537328863284
    Total Energy =                        -26.6053732886328405
  @DF-RKS Final Energy:   -26.60537386020192
    Total Energy =                        -26.6053738602019152
  @DF-RKS Final Energy:   -26.60537367910884
    Total Energy =                        -26.6053736791088369
  @DF-RKS Final Energy:   -26.60537781399536
    Total Energy =                        -26.6053778139953678
  Basis Set: CC-PV(T+D)Z
    Blend: CC-PV(T+D)Z
  Basis Set: (CC-PV(T+D)Z AUX)
    Blend: CC-PVTZ-JKFIT
  @DF-RKS Final Energy:   -26.60537794770771
    Total Energy =                        -26.6053779477077050
  Basis Set: CC-PV(T+D)Z
    Blend: CC-PV(T+D)Z
  Basis Set: (CC-PV(T+D)Z AUX)
    Blend: CC-PVTZ-JKFIT
  @DF-RKS Final Energy:   -26.60537302304869
    Total Energy =                        -26.6053730230486885
  Multiplicity = 1
  Basis Set: CC-PV(T+D)Z
    Blend: CC-PV(T+D)Z
  Basis Set: (CC-PV(T+D)Z AUX)
    Blend: CC-PVTZ-JKFIT
  @DF-RKS Final Energy:   -26.60537302301692
    Total Energy =                        -26.6053730230169201
    Molecular point group: cs

    Geometry (in Angstrom), charge = 0, multiplicity = 1:

       Center              X                  Y                   Z               Mass
    ------------   -----------------  -----------------  -----------------  -----------------
         B            0.000000000000    -0.000370145531    -0.000000147455    11.009305360000
         H            0.000000000000     0.001347800256     1.193527322497     1.007825032230
         H            1.033621271039     0.001347802575    -0.596762855861     1.007825032230
         H           -1.033621271039     0.001347802575    -0.596762855861     1.007825032230

  Charge       = 0
  Multiplicity = 1
  Basis Set: CC-PV(T+D)Z
    Blend: CC-PV(T+D)Z
  Basis Set: (CC-PV(T+D)Z AUX)
    Blend: CC-PVTZ-JKFIT

    Orbital Energies [Eh]
    ---------------------

    Doubly Occupied:

       1Ap    -6.865866     2Ap    -0.636896     3Ap    -0.459304
       1App   -0.459303

  @DF-RKS Final Energy:   -26.60537936712345

   => Energetics <=

    Nuclear Repulsion Energy =              7.4185395414805484
    One-Electron Energy =                 -49.0615636931809220
    Two-Electron Energy =                  18.3230235073050842
    DFT Exchange-Correlation Energy =      -3.3192263400186830
    Empirical Dispersion Energy =           0.0000000000000000
    VV10 Nonlocal Energy =                  0.0338476172905240
    Total Energy =                        -26.6053793671234509

  Dipole Moment: [D]
     X:     0.0000      Y:    -0.0037      Z:     0.0000     Total:     0.0037

  Vibration                       7                   8                   9
  Freq [cm^-1]                1154.3708           1207.4794           1254.4612
  Irrep                           B2                  A1                  B1
  Reduced mass [u]              1.2531              1.1069              1.1113
  Force const [mDyne/A]         0.9838              0.9508              1.0304

  Vibration                       10                  11                  12
  Freq [cm^-1]                2565.6816           2697.0147           2715.7568
  Irrep                           A1                  A1                  B1
  Reduced mass [u]              1.0078              1.1276              1.1231
  Force const [mDyne/A]         3.9088              4.8327              4.8803

  ==> Thermochemistry Components <==

  Entropy, S
    Electronic S            0.000 [cal/(mol K)]        0.000 [J/(mol K)]       0.00000000 [mEh/K] (multiplicity = 1)
    Translational S        33.864 [cal/(mol K)]      141.688 [J/(mol K)]       0.05396630 [mEh/K] (mol. weight = 14.0328 [u], P = 101325.00 [Pa])
    Rotational S           13.195 [cal/(mol K)]       55.207 [J/(mol K)]       0.02102735 [mEh/K] (symmetry no. = 2)
    Vibrational S           0.123 [cal/(mol K)]        0.516 [J/(mol K)]       0.00019637 [mEh/K]
  Total S                  47.182 [cal/(mol K)]      197.411 [J/(mol K)]       0.07519001 [mEh/K]
  Correction S              0.000 [cal/(mol K)]        0.000 [J/(mol K)]       0.00000000 [mEh/K]

  Constant volume heat capacity, Cv
    Electronic Cv           0.000 [cal/(mol K)]        0.000 [J/(mol K)]       0.00000000 [mEh/K]
    Translational Cv        2.981 [cal/(mol K)]       12.472 [J/(mol K)]       0.00475022 [mEh/K]
    Rotational Cv           2.981 [cal/(mol K)]       12.472 [J/(mol K)]       0.00475022 [mEh/K]
    Vibrational Cv          0.611 [cal/(mol K)]        2.558 [J/(mol K)]       0.00097413 [mEh/K]
  Total Cv                  6.573 [cal/(mol K)]       27.501 [J/(mol K)]       0.01047456 [mEh/K]
  Correction Cv             0.000 [cal/(mol K)]        0.000 [J/(mol K)]       0.00000000 [mEh/K]

  Constant pressure heat capacity, Cp
    Electronic Cp           0.000 [cal/(mol K)]        0.000 [J/(mol K)]       0.00000000 [mEh/K]
    Translational Cp        4.968 [cal/(mol K)]       20.786 [J/(mol K)]       0.00791703 [mEh/K]
    Rotational Cp           2.981 [cal/(mol K)]       12.472 [J/(mol K)]       0.00475022 [mEh/K]
    Vibrational Cp          0.611 [cal/(mol K)]        2.558 [J/(mol K)]       0.00097413 [mEh/K]
  Total Cp                  8.560 [cal/(mol K)]       35.815 [J/(mol K)]       0.01364137 [mEh/K]
  Correction Cp             0.000 [cal/(mol K)]        0.000 [J/(mol K)]       0.00000000 [mEh/K]

  ==> Thermochemistry Energy Analysis <==

  Raw electronic energy, E0
  Total E0, Electronic energy at well bottom at 0 [K]                  -26.60538000 [Eh]

  Zero-point energy, ZPE_vib = Sum_i nu_i / 2
    Electronic ZPE          0.000 [kcal/mol]        0.000 [kJ/mol]       0.00000000 [Eh]
    Translational ZPE       0.000 [kcal/mol]        0.000 [kJ/mol]       0.00000000 [Eh]
    Rotational ZPE          0.000 [kcal/mol]        0.000 [kJ/mol]       0.00000000 [Eh]
    Vibrational ZPE        16.576 [kcal/mol]       69.352 [kJ/mol]       0.02641482 [Eh]        5797.382 [cm^-1]
  Correction ZPE           16.576 [kcal/mol]       69.352 [kJ/mol]       0.02641482 [Eh]        5797.382 [cm^-1]
  Total ZPE, Electronic energy at 0 [K]                                -26.57896518 [Eh]

  Thermal Energy, E (includes ZPE)
    Electronic E            0.000 [kcal/mol]        0.000 [kJ/mol]       0.00000000 [Eh]
    Translational E         0.889 [kcal/mol]        3.718 [kJ/mol]       0.00141628 [Eh]
    Rotational E            0.889 [kcal/mol]        3.718 [kJ/mol]       0.00141628 [Eh]
    Vibrational E          16.607 [kcal/mol]       69.483 [kJ/mol]       0.02646475 [Eh]
  Correction E             18.384 [kcal/mol]       76.920 [kJ/mol]       0.02929730 [Eh]
  Total E, Electronic energy at  298.15 [K]                            -26.57608270 [Eh]

  Enthalpy, H_trans = E_trans + k_B * T
    Electronic H            0.000 [kcal/mol]        0.000 [kJ/mol]       0.00000000 [Eh]
    Translational H         1.481 [kcal/mol]        6.197 [kJ/mol]       0.00236046 [Eh]
    Rotational H            0.889 [kcal/mol]        3.718 [kJ/mol]       0.00141628 [Eh]
    Vibrational H          16.607 [kcal/mol]       69.483 [kJ/mol]       0.02646475 [Eh]
  Correction H             18.977 [kcal/mol]       79.399 [kJ/mol]       0.03024148 [Eh]
  Total H, Enthalpy at  298.15 [K]                                     -26.57513851 [Eh]

  Gibbs free energy, G = H - T * S
    Electronic G            0.000 [kcal/mol]        0.000 [kJ/mol]       0.00000000 [Eh]
    Translational G        -8.615 [kcal/mol]      -36.047 [kJ/mol]      -0.01372959 [Eh]
    Rotational G           -3.045 [kcal/mol]      -12.742 [kJ/mol]      -0.00485303 [Eh]
    Vibrational G          16.570 [kcal/mol]       69.329 [kJ/mol]       0.02640620 [Eh]
  Correction G              4.909 [kcal/mol]       20.541 [kJ/mol]       0.00782358 [Eh]
  Total G, Free enthalpy at  298.15 [K]                                -26.59755642 [Eh]

*** Psi4 exiting successfully. Buy a developer a beer!
