                               Psi4 1.3.2 release

  ==> Input File <==

--------------------------------------------------------------------------
memory 144 GB

molecule {
0 1
C 0.0000000000 0.0000000000 0.0000000000
C 0.0000000000 0.0000000000 1.2065000000
H 0.0000000000 -0.0000000000 2.2699000000
H -0.0000000000 -0.0000000000 -1.0634000000
}

set dynamic_level 1
set basis cc-pV(T+d)Z

optimize("wB97X-V")
frequencies("wB97X-V")
--------------------------------------------------------------------------

    Molecular point group: d2h
  Charge       = 0
  Multiplicity = 1
  Basis Set: CC-PV(T+D)Z
    Blend: CC-PV(T+D)Z
  Basis Set: (CC-PV(T+D)Z AUX)
    Blend: CC-PVTZ-JKFIT
  @DF-RKS Final Energy:   -77.32979434170504
    Total Energy =                        -77.3297943417050533
    Molecular point group: d2h
  Basis Set: CC-PV(T+D)Z
    Blend: CC-PV(T+D)Z
  Basis Set: (CC-PV(T+D)Z AUX)
    Blend: CC-PVTZ-JKFIT
  @DF-RKS Final Energy:   -77.32974223425197
    Total Energy =                        -77.3297422342519667
  Basis Set: CC-PV(T+D)Z
    Blend: CC-PV(T+D)Z
  Basis Set: (CC-PV(T+D)Z AUX)
    Blend: CC-PVTZ-JKFIT
  @DF-RKS Final Energy:   -77.32984099980560
    Total Energy =                        -77.3298409998055973
  Basis Set: CC-PV(T+D)Z
    Blend: CC-PV(T+D)Z
  Basis Set: (CC-PV(T+D)Z AUX)
    Blend: CC-PVTZ-JKFIT
  @DF-RKS Final Energy:   -77.32977656096055
    Total Energy =                        -77.3297765609605392
  @DF-RKS Final Energy:   -77.32980178029180
    Total Energy =                        -77.3298017802918025
  @DF-RKS Final Energy:   -77.33002474570715
    Total Energy =                        -77.3300247457071492
  @DF-RKS Final Energy:   -77.33002738078272
    Total Energy =                        -77.3300273807827523
  @DF-RKS Final Energy:   -77.33001636357298
    Total Energy =                        -77.3300163635730087
  @DF-RKS Final Energy:   -77.33002179206494
    Total Energy =                        -77.3300217920649402
  @DF-RKS Final Energy:   -77.33001750764591
    Total Energy =                        -77.3300175076459197
  @DF-RKS Final Energy:   -77.33002741972790
    Total Energy =                        -77.3300274197278981
  @DF-RKS Final Energy:   -77.33002441214070
    Total Energy =                        -77.3300244121407019
  @DF-RKS Final Energy:   -77.33002471114057
    Total Energy =                        -77.3300247111405668
  @DF-RKS Final Energy:   -77.33002226637159
    Total Energy =                        -77.3300222663715857
  @DF-RKS Final Energy:   -77.33002235717645
    Total Energy =                        -77.3300223571764462
  **** Optimization is complete! (in 3 steps) ****
    Final optimized geometry and variables:
  @DF-RKS Final Energy:   -77.33002741972791
    Total Energy =                        -77.3300274197279123
  @DF-RKS Final Energy:   -77.33002441214067
    Total Energy =                        -77.3300244121406593
  @DF-RKS Final Energy:   -77.33002471114058
    Total Energy =                        -77.3300247111405810
  @DF-RKS Final Energy:   -77.33002226637159
    Total Energy =                        -77.3300222663715999
  @DF-RKS Final Energy:   -77.33002235717642
    Total Energy =                        -77.3300223571764320
  @DF-RKS Final Energy:   -77.33002741972787
    Total Energy =                        -77.3300274197278696
  @DF-RKS Final Energy:   -77.33002441214077
    Total Energy =                        -77.3300244121407871
  @DF-RKS Final Energy:   -77.33002471114064
    Total Energy =                        -77.3300247111406378
  @DF-RKS Final Energy:   -77.33002226637153
    Total Energy =                        -77.3300222663715431
  @DF-RKS Final Energy:   -77.33002235717643
    Total Energy =                        -77.3300223571764320
  @DF-RKS Final Energy:   -77.33001660957511
    Total Energy =                        -77.3300166095751109
  @DF-RKS Final Energy:   -77.33001617928406
    Total Energy =                        -77.3300161792840584
  @DF-RKS Final Energy:   -77.33002718852677
    Total Energy =                        -77.3300271885267847
  Basis Set: CC-PV(T+D)Z
    Blend: CC-PV(T+D)Z
  Basis Set: (CC-PV(T+D)Z AUX)
    Blend: CC-PVTZ-JKFIT
  @DF-RKS Final Energy:   -77.33002718829923
    Total Energy =                        -77.3300271882992405
  Basis Set: CC-PV(T+D)Z
    Blend: CC-PV(T+D)Z
  Basis Set: (CC-PV(T+D)Z AUX)
    Blend: CC-PVTZ-JKFIT
  @DF-RKS Final Energy:   -77.33002189474293
    Total Energy =                        -77.3300218947429414
  Multiplicity = 1
  Basis Set: CC-PV(T+D)Z
    Blend: CC-PV(T+D)Z
  Basis Set: (CC-PV(T+D)Z AUX)
    Blend: CC-PVTZ-JKFIT
  @DF-RKS Final Energy:   -77.33002712636092
    Total Energy =                        -77.3300271263609176
    Molecular point group: c2v

    Geometry (in Angstrom), charge = 0, multiplicity = 1:

       Center              X                  Y                   Z               Mass
    ------------   -----------------  -----------------  -----------------  -----------------
         C           -0.000150333491     0.000000000000    -0.597981526892    12.000000000000
         C           -0.000150333491     0.000000000000     0.597981526892    12.000000000000
         H            0.001789995126     0.000000000000     1.663485645361     1.007825032230
         H            0.001789995126     0.000000000000    -1.663485645361     1.007825032230

  Charge       = 0
  Multiplicity = 1
  Basis Set: CC-PV(T+D)Z
    Blend: CC-PV(T+D)Z
  Basis Set: (CC-PV(T+D)Z AUX)
    Blend: CC-PVTZ-JKFIT

    Orbital Energies [Eh]
    ---------------------

    Doubly Occupied:

       1A1   -10.278370     1B2   -10.275765     2A1    -0.884849
       2B2    -0.684624     3A1    -0.607503     1B1    -0.398942
       4A1    -0.398942

  @DF-RKS Final Energy:   -77.33002712580914

   => Energetics <=

    Nuclear Repulsion Energy =             24.8556555813737710
    One-Electron Energy =                -152.0785254621304432
    Two-Electron Energy =                  57.7239580478295906
    DFT Exchange-Correlation Energy =      -7.8888493799819557
    Empirical Dispersion Energy =           0.0000000000000000
    VV10 Nonlocal Energy =                  0.0577340870998943
    Total Energy =                        -77.3300271258091669

  Dipole Moment: [D]
     X:     0.0040      Y:     0.0000      Z:    -0.0000     Total:     0.0040

  Vibration                       6                   7                   8
  Freq [cm^-1]                 699.1079            699.4519            787.5078
  Irrep                          B2g                 B3g                 B2u
  Reduced mass [u]              1.5768              1.5768              1.0848
  Force const [mDyne/A]         0.4541              0.4545              0.3964

  Vibration                       9                   10                  11
  Freq [cm^-1]                 788.2480           2099.0688           3417.5496
  Irrep                          B3u                  Ag                 B1u
  Reduced mass [u]              1.0848              3.7238              1.0848
  Force const [mDyne/A]         0.3971              9.6671              7.4651

  Vibration                       12
  Freq [cm^-1]                3526.1695
  Irrep                           Ag
  Reduced mass [u]              1.2391
  Force const [mDyne/A]         9.0775

  ==> Thermochemistry Components <==

  Entropy, S
    Electronic S            0.000 [cal/(mol K)]        0.000 [J/(mol K)]       0.00000000 [mEh/K] (multiplicity = 1)
    Translational S        35.704 [cal/(mol K)]      149.387 [J/(mol K)]       0.05689862 [mEh/K] (mol. weight = 26.0157 [u], P = 101325.00 [Pa])
    Rotational S           10.863 [cal/(mol K)]       45.449 [J/(mol K)]       0.01731057 [mEh/K] (symmetry no. = 2)
    Vibrational S           1.050 [cal/(mol K)]        4.391 [J/(mol K)]       0.00167256 [mEh/K]
  Total S                  47.617 [cal/(mol K)]      199.228 [J/(mol K)]       0.07588175 [mEh/K]
  Correction S              0.000 [cal/(mol K)]        0.000 [J/(mol K)]       0.00000000 [mEh/K]

  Constant volume heat capacity, Cv
    Electronic Cv           0.000 [cal/(mol K)]        0.000 [J/(mol K)]       0.00000000 [mEh/K]
    Translational Cv        2.981 [cal/(mol K)]       12.472 [J/(mol K)]       0.00475022 [mEh/K]
    Rotational Cv           1.987 [cal/(mol K)]        8.314 [J/(mol K)]       0.00316681 [mEh/K]
    Vibrational Cv          3.011 [cal/(mol K)]       12.599 [J/(mol K)]       0.00479875 [mEh/K]
  Total Cv                  7.979 [cal/(mol K)]       33.385 [J/(mol K)]       0.01271577 [mEh/K]
  Correction Cv             0.000 [cal/(mol K)]        0.000 [J/(mol K)]       0.00000000 [mEh/K]

  Constant pressure heat capacity, Cp
    Electronic Cp           0.000 [cal/(mol K)]        0.000 [J/(mol K)]       0.00000000 [mEh/K]
    Translational Cp        4.968 [cal/(mol K)]       20.786 [J/(mol K)]       0.00791703 [mEh/K]
    Rotational Cp           1.987 [cal/(mol K)]        8.314 [J/(mol K)]       0.00316681 [mEh/K]
    Vibrational Cp          3.011 [cal/(mol K)]       12.599 [J/(mol K)]       0.00479875 [mEh/K]
  Total Cp                  9.966 [cal/(mol K)]       41.700 [J/(mol K)]       0.01588258 [mEh/K]
  Correction Cp             0.000 [cal/(mol K)]        0.000 [J/(mol K)]       0.00000000 [mEh/K]

  ==> Thermochemistry Energy Analysis <==

  Raw electronic energy, E0
  Total E0, Electronic energy at well bottom at 0 [K]                  -77.33002742 [Eh]

  Zero-point energy, ZPE_vib = Sum_i nu_i / 2
    Electronic ZPE          0.000 [kcal/mol]        0.000 [kJ/mol]       0.00000000 [Eh]
    Translational ZPE       0.000 [kcal/mol]        0.000 [kJ/mol]       0.00000000 [Eh]
    Rotational ZPE          0.000 [kcal/mol]        0.000 [kJ/mol]       0.00000000 [Eh]
    Vibrational ZPE        17.179 [kcal/mol]       71.878 [kJ/mol]       0.02737698 [Eh]        6008.552 [cm^-1]
  Correction ZPE           17.179 [kcal/mol]       71.878 [kJ/mol]       0.02737698 [Eh]        6008.552 [cm^-1]
  Total ZPE, Electronic energy at 0 [K]                                -77.30265044 [Eh]

  Thermal Energy, E (includes ZPE)
    Electronic E            0.000 [kcal/mol]        0.000 [kJ/mol]       0.00000000 [Eh]
    Translational E         0.889 [kcal/mol]        3.718 [kJ/mol]       0.00141628 [Eh]
    Rotational E            0.592 [kcal/mol]        2.479 [kJ/mol]       0.00094418 [Eh]
    Vibrational E          17.424 [kcal/mol]       72.903 [kJ/mol]       0.02776720 [Eh]
  Correction E             18.905 [kcal/mol]       79.100 [kJ/mol]       0.03012766 [Eh]
  Total E, Electronic energy at  298.15 [K]                            -77.29989976 [Eh]

  Enthalpy, H_trans = E_trans + k_B * T
    Electronic H            0.000 [kcal/mol]        0.000 [kJ/mol]       0.00000000 [Eh]
    Translational H         1.481 [kcal/mol]        6.197 [kJ/mol]       0.00236046 [Eh]
    Rotational H            0.592 [kcal/mol]        2.479 [kJ/mol]       0.00094418 [Eh]
    Vibrational H          17.424 [kcal/mol]       72.903 [kJ/mol]       0.02776720 [Eh]
  Correction H             19.498 [kcal/mol]       81.579 [kJ/mol]       0.03107184 [Eh]
  Total H, Enthalpy at  298.15 [K]                                     -77.29895558 [Eh]

  Gibbs free energy, G = H - T * S
    Electronic G            0.000 [kcal/mol]        0.000 [kJ/mol]       0.00000000 [Eh]
    Translational G        -9.164 [kcal/mol]      -38.342 [kJ/mol]      -0.01460386 [Eh]
    Rotational G           -2.646 [kcal/mol]      -11.072 [kJ/mol]      -0.00421696 [Eh]
    Vibrational G          17.111 [kcal/mol]       71.593 [kJ/mol]       0.02726852 [Eh]
  Correction G              5.301 [kcal/mol]       22.179 [kJ/mol]       0.00844770 [Eh]
  Total G, Free enthalpy at  298.15 [K]                                -77.32157972 [Eh]

*** Psi4 exiting successfully. Buy a developer a beer!
