                               Psi4 1.3.2 release

  ==> Input File <==

--------------------------------------------------------------------------
memory 144 GB

molecule {
0 1
C 0.0000000000 0.0000000000 0.0000000000
C 0.0000000000 0.0000000000 1.3342000000
H 0.9234041342 0.0000000000 1.8987335198
H -0.9234041342 0.0000000000 1.8987335198
H 0.9234041342 0.0000000000 -0.5645335198
H -0.9234041342 -0.0000000000 -0.5645335198
}

set dynamic_level 1
set basis cc-pV(T+d)Z

optimize("wB97X-V")
frequencies("wB97X-V")
--------------------------------------------------------------------------

    Molecular point group: d2h
  Charge       = 0
  Multiplicity = 1
  Basis Set: CC-PV(T+D)Z
    Blend: CC-PV(T+D)Z
  Basis Set: (CC-PV(T+D)Z AUX)
    Blend: CC-PVTZ-JKFIT
  @DF-RKS Final Energy:   -78.58737354467777
    Total Energy =                        -78.5873735446777886
    Molecular point group: d2h
  Basis Set: CC-PV(T+D)Z
    Blend: CC-PV(T+D)Z
  Basis Set: (CC-PV(T+D)Z AUX)
    Blend: CC-PVTZ-JKFIT
  @DF-RKS Final Energy:   -78.58734419283905
    Total Energy =                        -78.5873441928390548
  Basis Set: CC-PV(T+D)Z
    Blend: CC-PV(T+D)Z
  Basis Set: (CC-PV(T+D)Z AUX)
    Blend: CC-PVTZ-JKFIT
  @DF-RKS Final Energy:   -78.58739992861422
    Total Energy =                        -78.5873999286142180
  Basis Set: CC-PV(T+D)Z
    Blend: CC-PV(T+D)Z
  Basis Set: (CC-PV(T+D)Z AUX)
    Blend: CC-PVTZ-JKFIT
  @DF-RKS Final Energy:   -78.58735460637372
    Total Energy =                        -78.5873546063737223
  @DF-RKS Final Energy:   -78.58738510731771
    Total Energy =                        -78.5873851073177150
  @DF-RKS Final Energy:   -78.58736102286750
    Total Energy =                        -78.5873610228674977
  @DF-RKS Final Energy:   -78.58738231029483
    Total Energy =                        -78.5873823102948279
  @DF-RKS Final Energy:   -78.58749964869702
    Total Energy =                        -78.5874996486970190
  @DF-RKS Final Energy:   -78.58749855641032
    Total Energy =                        -78.5874985564103241
  @DF-RKS Final Energy:   -78.58749763374433
    Total Energy =                        -78.5874976337443343
  @DF-RKS Final Energy:   -78.58749731104780
    Total Energy =                        -78.5874973110477839
  @DF-RKS Final Energy:   -78.58749471883394
    Total Energy =                        -78.5874947188339661
  @DF-RKS Final Energy:   -78.58749409466576
    Total Energy =                        -78.5874940946657716
  @DF-RKS Final Energy:   -78.58750146461730
    Total Energy =                        -78.5875014646173042
  @DF-RKS Final Energy:   -78.58750340127824
    Total Energy =                        -78.5875034012782265
  @DF-RKS Final Energy:   -78.58750146609073
    Total Energy =                        -78.5875014660907283
  @DF-RKS Final Energy:   -78.58750223596405
    Total Energy =                        -78.5875022359640525
  @DF-RKS Final Energy:   -78.58750049020267
    Total Energy =                        -78.5875004902026575
  @DF-RKS Final Energy:   -78.58749905318865
    Total Energy =                        -78.5874990531886652
  @DF-RKS Final Energy:   -78.58750067367554
    Total Energy =                        -78.5875006736755495
  **** Optimization is complete! (in 4 steps) ****
    Final optimized geometry and variables:
  @DF-RKS Final Energy:   -78.58749725130716
    Total Energy =                        -78.5874972513071697
  @DF-RKS Final Energy:   -78.58749909661769
    Total Energy =                        -78.5874990966176910
  @DF-RKS Final Energy:   -78.58749909716191
    Total Energy =                        -78.5874990971619098
  @DF-RKS Final Energy:   -78.58749517435520
    Total Energy =                        -78.5874951743552117
  @DF-RKS Final Energy:   -78.58749517733126
    Total Energy =                        -78.5874951773312773
  @DF-RKS Final Energy:   -78.58750205770477
    Total Energy =                        -78.5875020577047678
  @DF-RKS Final Energy:   -78.58749972618374
    Total Energy =                        -78.5874997261837365
  @DF-RKS Final Energy:   -78.58749459717575
    Total Energy =                        -78.5874945971757626
  @DF-RKS Final Energy:   -78.58749459685600
    Total Energy =                        -78.5874945968560041
  @DF-RKS Final Energy:   -78.58750323830338
    Total Energy =                        -78.5875032383033840
  @DF-RKS Final Energy:   -78.58750317233543
    Total Energy =                        -78.5875031723354311
  @DF-RKS Final Energy:   -78.58750163882137
    Total Energy =                        -78.5875016388213652
  @DF-RKS Final Energy:   -78.58750008393189
    Total Energy =                        -78.5875000839319000
  @DF-RKS Final Energy:   -78.58750130772717
    Total Energy =                        -78.5875013077271660
  @DF-RKS Final Energy:   -78.58750130770160
    Total Energy =                        -78.5875013077016007
  @DF-RKS Final Energy:   -78.58750325162346
    Total Energy =                        -78.5875032516234597
  Basis Set: CC-PV(T+D)Z
    Blend: CC-PV(T+D)Z
  Basis Set: (CC-PV(T+D)Z AUX)
    Blend: CC-PVTZ-JKFIT
  @DF-RKS Final Energy:   -78.58749989504554
    Total Energy =                        -78.5874998950455250
  Basis Set: CC-PV(T+D)Z
    Blend: CC-PV(T+D)Z
  Basis Set: (CC-PV(T+D)Z AUX)
    Blend: CC-PVTZ-JKFIT
  @DF-RKS Final Energy:   -78.58750221720351
    Total Energy =                        -78.5875022172034932
  Multiplicity = 1
  Basis Set: CC-PV(T+D)Z
    Blend: CC-PV(T+D)Z
  Basis Set: (CC-PV(T+D)Z AUX)
    Blend: CC-PVTZ-JKFIT
  @DF-RKS Final Energy:   -78.58750244175152
    Total Energy =                        -78.5875024417515107
    Molecular point group: c2v

    Geometry (in Angstrom), charge = 0, multiplicity = 1:

       Center              X                  Y                   Z               Mass
    ------------   -----------------  -----------------  -----------------  -----------------
         C           -0.000204817217     0.000000000000    -0.662163388805    12.000000000000
         C           -0.000204817217     0.000000000000     0.662163388805    12.000000000000
         H            0.925578204600     0.000000000000     1.229416825161     1.007825032230
         H           -0.923139481080     0.000000000000     1.232052419503     1.007825032230
         H            0.925578204600     0.000000000000    -1.229416825161     1.007825032230
         H           -0.923139481080     0.000000000000    -1.232052419503     1.007825032230

  Charge       = 0
  Multiplicity = 1
  Basis Set: CC-PV(T+D)Z
    Blend: CC-PV(T+D)Z
  Basis Set: (CC-PV(T+D)Z AUX)
    Blend: CC-PVTZ-JKFIT

    Orbital Energies [Eh]
    ---------------------

    Doubly Occupied:

       1A1   -10.269957     1B2   -10.269039     2A1    -0.894512
       2B2    -0.700381     3A1    -0.583672     4A1    -0.528458
       3B2    -0.457865     1B1    -0.377748

  @DF-RKS Final Energy:   -78.58750244182954

   => Energetics <=

    Nuclear Repulsion Energy =             33.4630343520090321
    One-Electron Energy =                -170.4697044149559133
    Two-Electron Energy =                  66.6675840772534087
    DFT Exchange-Correlation Energy =      -8.3133272310088220
    Empirical Dispersion Energy =           0.0000000000000000
    VV10 Nonlocal Energy =                  0.0649107748727317
    Total Energy =                        -78.5875024418295709

  Dipole Moment: [D]
     X:    -0.0005      Y:     0.0000      Z:     0.0000     Total:     0.0005

  Vibration                       7                   8                   9
  Freq [cm^-1]                 832.5165            991.3636           1005.4651
  Irrep                          B3u                 B2u                 B3g
  Reduced mass [u]              1.0423              1.1607              1.5186
  Force const [mDyne/A]         0.4256              0.6721              0.9046

  Vibration                       10                  11                  12
  Freq [cm^-1]                1072.5737           1245.8044           1386.1077
  Irrep                           Au                 B2g                  Ag
  Reduced mass [u]              1.0078              1.5257              1.1836
  Force const [mDyne/A]         0.6831              1.3951              1.3398

  Vibration                       13                  14                  15
  Freq [cm^-1]                1475.9521           1720.1377           3145.3113
  Irrep                          B1u                  Ag                 B1u
  Reduced mass [u]              1.1123              3.4092              1.0474
  Force const [mDyne/A]         1.4276              5.9434              6.1052

  Vibration                       16                  17                  18
  Freq [cm^-1]                3165.7785           3223.3757           3248.8385
  Irrep                           Ag                 B2g                 B3u
  Reduced mass [u]              1.0757              1.1153              1.1181
  Force const [mDyne/A]         6.3521              6.8277              6.9535

  ==> Thermochemistry Components <==

  Entropy, S
    Electronic S            0.000 [cal/(mol K)]        0.000 [J/(mol K)]       0.00000000 [mEh/K] (multiplicity = 1)
    Translational S        35.927 [cal/(mol K)]      150.318 [J/(mol K)]       0.05725309 [mEh/K] (mol. weight = 28.0313 [u], P = 101325.00 [Pa])
    Rotational S           15.844 [cal/(mol K)]       66.293 [J/(mol K)]       0.02524977 [mEh/K] (symmetry no. = 4)
    Vibrational S           0.511 [cal/(mol K)]        2.140 [J/(mol K)]       0.00081496 [mEh/K]
  Total S                  52.283 [cal/(mol K)]      218.751 [J/(mol K)]       0.08331783 [mEh/K]
  Correction S              0.000 [cal/(mol K)]        0.000 [J/(mol K)]       0.00000000 [mEh/K]

  Constant volume heat capacity, Cv
    Electronic Cv           0.000 [cal/(mol K)]        0.000 [J/(mol K)]       0.00000000 [mEh/K]
    Translational Cv        2.981 [cal/(mol K)]       12.472 [J/(mol K)]       0.00475022 [mEh/K]
    Rotational Cv           2.981 [cal/(mol K)]       12.472 [J/(mol K)]       0.00475022 [mEh/K]
    Vibrational Cv          2.065 [cal/(mol K)]        8.638 [J/(mol K)]       0.00329006 [mEh/K]
  Total Cv                  8.026 [cal/(mol K)]       33.581 [J/(mol K)]       0.01279049 [mEh/K]
  Correction Cv             0.000 [cal/(mol K)]        0.000 [J/(mol K)]       0.00000000 [mEh/K]

  Constant pressure heat capacity, Cp
    Electronic Cp           0.000 [cal/(mol K)]        0.000 [J/(mol K)]       0.00000000 [mEh/K]
    Translational Cp        4.968 [cal/(mol K)]       20.786 [J/(mol K)]       0.00791703 [mEh/K]
    Rotational Cp           2.981 [cal/(mol K)]       12.472 [J/(mol K)]       0.00475022 [mEh/K]
    Vibrational Cp          2.065 [cal/(mol K)]        8.638 [J/(mol K)]       0.00329006 [mEh/K]
  Total Cp                 10.013 [cal/(mol K)]       41.896 [J/(mol K)]       0.01595730 [mEh/K]
  Correction Cp             0.000 [cal/(mol K)]        0.000 [J/(mol K)]       0.00000000 [mEh/K]

  ==> Thermochemistry Energy Analysis <==

  Raw electronic energy, E0
  Total E0, Electronic energy at well bottom at 0 [K]                  -78.58750372 [Eh]

  Zero-point energy, ZPE_vib = Sum_i nu_i / 2
    Electronic ZPE          0.000 [kcal/mol]        0.000 [kJ/mol]       0.00000000 [Eh]
    Translational ZPE       0.000 [kcal/mol]        0.000 [kJ/mol]       0.00000000 [Eh]
    Rotational ZPE          0.000 [kcal/mol]        0.000 [kJ/mol]       0.00000000 [Eh]
    Vibrational ZPE        32.184 [kcal/mol]      134.659 [kJ/mol]       0.05128890 [Eh]       11256.612 [cm^-1]
  Correction ZPE           32.184 [kcal/mol]      134.659 [kJ/mol]       0.05128890 [Eh]       11256.612 [cm^-1]
  Total ZPE, Electronic energy at 0 [K]                                -78.53621482 [Eh]

  Thermal Energy, E (includes ZPE)
    Electronic E            0.000 [kcal/mol]        0.000 [kJ/mol]       0.00000000 [Eh]
    Translational E         0.889 [kcal/mol]        3.718 [kJ/mol]       0.00141628 [Eh]
    Rotational E            0.889 [kcal/mol]        3.718 [kJ/mol]       0.00141628 [Eh]
    Vibrational E          32.310 [kcal/mol]      135.186 [kJ/mol]       0.05148956 [Eh]
  Correction E             34.088 [kcal/mol]      142.623 [kJ/mol]       0.05432211 [Eh]
  Total E, Electronic energy at  298.15 [K]                            -78.53318160 [Eh]

  Enthalpy, H_trans = E_trans + k_B * T
    Electronic H            0.000 [kcal/mol]        0.000 [kJ/mol]       0.00000000 [Eh]
    Translational H         1.481 [kcal/mol]        6.197 [kJ/mol]       0.00236046 [Eh]
    Rotational H            0.889 [kcal/mol]        3.718 [kJ/mol]       0.00141628 [Eh]
    Vibrational H          32.310 [kcal/mol]      135.186 [kJ/mol]       0.05148956 [Eh]
  Correction H             34.680 [kcal/mol]      145.102 [kJ/mol]       0.05526630 [Eh]
  Total H, Enthalpy at  298.15 [K]                                     -78.53223742 [Eh]

  Gibbs free energy, G = H - T * S
    Electronic G            0.000 [kcal/mol]        0.000 [kJ/mol]       0.00000000 [Eh]
    Translational G        -9.230 [kcal/mol]      -38.620 [kJ/mol]      -0.01470955 [Eh]
    Rotational G           -3.835 [kcal/mol]      -16.047 [kJ/mol]      -0.00611194 [Eh]
    Vibrational G          32.158 [kcal/mol]      134.548 [kJ/mol]       0.05124658 [Eh]
  Correction G             19.092 [kcal/mol]       79.881 [kJ/mol]       0.03042509 [Eh]
  Total G, Free enthalpy at  298.15 [K]                                -78.55707863 [Eh]

*** Psi4 exiting successfully. Buy a developer a beer!
