                               Psi4 1.3.2 release

  ==> Input File <==

--------------------------------------------------------------------------
memory 144 GB

molecule {
0 1
C 0.0000000000 0.0000000000 0.0000000000
Cl 0.0000000000 0.0000000000 1.7182578700
Cl 1.6229007750 0.0000000000 -0.5644494507
}

set dynamic_level 1
set basis cc-pV(T+d)Z

optimize("wB97X-V")
frequencies("wB97X-V")
--------------------------------------------------------------------------

    Molecular point group: c2v
  Charge       = 0
  Multiplicity = 1
  Basis Set: CC-PV(T+D)Z
    Blend: CC-PV(T+D)Z
  Basis Set: (CC-PV(T+D)Z AUX)
    Blend: CC-PVTZ-JKFIT
  @DF-RKS Final Energy:  -958.29867933429080
    Total Energy =                       -958.2986793342907959
    Molecular point group: c2v
  Basis Set: CC-PV(T+D)Z
    Blend: CC-PV(T+D)Z
  Basis Set: (CC-PV(T+D)Z AUX)
    Blend: CC-PVTZ-JKFIT
  @DF-RKS Final Energy:  -958.29867108963197
    Total Energy =                       -958.2986710896318527
  Basis Set: CC-PV(T+D)Z
    Blend: CC-PV(T+D)Z
  Basis Set: (CC-PV(T+D)Z AUX)
    Blend: CC-PVTZ-JKFIT
  @DF-RKS Final Energy:  -958.29868709786274
    Total Energy =                       -958.2986870978627394
  Basis Set: CC-PV(T+D)Z
    Blend: CC-PV(T+D)Z
  Basis Set: (CC-PV(T+D)Z AUX)
    Blend: CC-PVTZ-JKFIT
  @DF-RKS Final Energy:  -958.29868467599670
    Total Energy =                       -958.2986846759966966
  @DF-RKS Final Energy:  -958.29867383499379
    Total Energy =                       -958.2986738349937923
  @DF-RKS Final Energy:  -958.29877010148141
    Total Energy =                       -958.2987701014814093
  @DF-RKS Final Energy:  -958.29876600289583
    Total Energy =                       -958.2987660028957180
  @DF-RKS Final Energy:  -958.29877370596421
    Total Energy =                       -958.2987737059643223
  @DF-RKS Final Energy:  -958.29877032901368
    Total Energy =                       -958.2987703290136778
  @DF-RKS Final Energy:  -958.29876970921032
    Total Energy =                       -958.2987697092104327
  @DF-RKS Final Energy:  -958.29878707065154
    Total Energy =                       -958.2987870706514286
  @DF-RKS Final Energy:  -958.29878735168802
    Total Energy =                       -958.2987873516880200
  @DF-RKS Final Energy:  -958.29878629410632
    Total Energy =                       -958.2987862941062076
  @DF-RKS Final Energy:  -958.29878695815285
    Total Energy =                       -958.2987869581528457
  @DF-RKS Final Energy:  -958.29878701616292
    Total Energy =                       -958.2987870161629189
  @DF-RKS Final Energy:  -958.29878741009725
    Total Energy =                       -958.2987874100971339
  @DF-RKS Final Energy:  -958.29878715739778
    Total Energy =                       -958.2987871573977827
  @DF-RKS Final Energy:  -958.29878716815278
    Total Energy =                       -958.2987871681527849
  @DF-RKS Final Energy:  -958.29878733066835
    Total Energy =                       -958.2987873306683468
  @DF-RKS Final Energy:  -958.29878732339989
    Total Energy =                       -958.2987873234000062
  **** Optimization is complete! (in 4 steps) ****
    Final optimized geometry and variables:
  @DF-RKS Final Energy:  -958.29878741009736
    Total Energy =                       -958.2987874100973613
  @DF-RKS Final Energy:  -958.29878715739756
    Total Energy =                       -958.2987871573975553
  @DF-RKS Final Energy:  -958.29878716815222
    Total Energy =                       -958.2987871681523302
  @DF-RKS Final Energy:  -958.29878733066835
    Total Energy =                       -958.2987873306683468
  @DF-RKS Final Energy:  -958.29878732340046
    Total Energy =                       -958.2987873234004610
  @DF-RKS Final Energy:  -958.29878741009657
    Total Energy =                       -958.2987874100965655
  @DF-RKS Final Energy:  -958.29878715739892
    Total Energy =                       -958.2987871573989196
  @DF-RKS Final Energy:  -958.29878716815210
    Total Energy =                       -958.2987871681519891
  @DF-RKS Final Energy:  -958.29878733066892
    Total Energy =                       -958.2987873306690290
  Basis Set: CC-PV(T+D)Z
    Blend: CC-PV(T+D)Z
  Basis Set: (CC-PV(T+D)Z AUX)
    Blend: CC-PVTZ-JKFIT
  @DF-RKS Final Energy:  -958.29878732340001
    Total Energy =                       -958.2987873234000062
  Basis Set: CC-PV(T+D)Z
    Blend: CC-PV(T+D)Z
  Basis Set: (CC-PV(T+D)Z AUX)
    Blend: CC-PVTZ-JKFIT
  @DF-RKS Final Energy:  -958.29878722087346
    Total Energy =                       -958.2987872208734643
  Multiplicity = 1
  Basis Set: CC-PV(T+D)Z
    Blend: CC-PV(T+D)Z
  Basis Set: (CC-PV(T+D)Z AUX)
    Blend: CC-PVTZ-JKFIT
  @DF-RKS Final Energy:  -958.29878721750345
    Total Energy =                       -958.2987872175034454
    Molecular point group: cs

    Geometry (in Angstrom), charge = 0, multiplicity = 1:

       Center              X                  Y                   Z               Mass
    ------------   -----------------  -----------------  -----------------  -----------------
         C            0.000000000000    -0.000680994054    -0.843270716501    12.000000000000
         CL           0.000000000000     1.392362709858     0.144772372471    34.968852682000
         CL           0.000000000000    -1.392129018214     0.144606541102    34.968852682000

  Charge       = 0
  Multiplicity = 1
  Basis Set: CC-PV(T+D)Z
    Blend: CC-PV(T+D)Z
  Basis Set: (CC-PV(T+D)Z AUX)
    Blend: CC-PVTZ-JKFIT

    Orbital Energies [Eh]
    ---------------------

    Doubly Occupied:

       1Ap  -101.593746     2Ap  -101.593472     3Ap   -10.431965
       4Ap    -9.610462     5Ap    -9.610168     6Ap    -7.364956
       7Ap    -7.364669     1App   -7.359763     2App   -7.359463
       8Ap    -7.356110     9Ap    -7.355820    10Ap    -1.076143
      11Ap    -0.989328    12Ap    -0.728816    13Ap    -0.578875
      14Ap    -0.535153     3App   -0.530762     4App   -0.456624
      15Ap    -0.435742    16Ap    -0.363632

  @DF-RKS Final Energy:  -958.29878710032449

   => Energetics <=

    Nuclear Repulsion Energy =            118.1575890697506281
    One-Electron Energy =               -1555.9057352272566277
    Two-Electron Energy =                 525.7118090221935063
    DFT Exchange-Correlation Energy =     -46.4278325010814399
    Empirical Dispersion Energy =           0.0000000000000000
    VV10 Nonlocal Energy =                  0.1653825360693920
    Total Energy =                       -958.2987871003244891

  Dipole Moment: [D]
     X:     0.0000      Y:    -0.0079      Z:     1.1779     Total:     1.1779

  Vibration                       7                   8                   9
  Freq [cm^-1]                 348.4887            759.5889            809.2271
  Irrep                           A1                  A1                  B2
  Reduced mass [u]             29.2824             14.3341             13.8680
  Force const [mDyne/A]         2.0952              4.8728              5.3506

  ==> Thermochemistry Components <==

  Entropy, S
    Electronic S            0.000 [cal/(mol K)]        0.000 [J/(mol K)]       0.00000000 [mEh/K] (multiplicity = 1)
    Translational S        39.124 [cal/(mol K)]      163.696 [J/(mol K)]       0.06234835 [mEh/K] (mol. weight = 81.9377 [u], P = 101325.00 [Pa])
    Rotational S           22.334 [cal/(mol K)]       93.445 [J/(mol K)]       0.03559146 [mEh/K] (symmetry no. = 2)
    Vibrational S           1.616 [cal/(mol K)]        6.760 [J/(mol K)]       0.00257487 [mEh/K]
  Total S                  63.074 [cal/(mol K)]      263.901 [J/(mol K)]       0.10051469 [mEh/K]
  Correction S              0.000 [cal/(mol K)]        0.000 [J/(mol K)]       0.00000000 [mEh/K]

  Constant volume heat capacity, Cv
    Electronic Cv           0.000 [cal/(mol K)]        0.000 [J/(mol K)]       0.00000000 [mEh/K]
    Translational Cv        2.981 [cal/(mol K)]       12.472 [J/(mol K)]       0.00475022 [mEh/K]
    Rotational Cv           2.981 [cal/(mol K)]       12.472 [J/(mol K)]       0.00475022 [mEh/K]
    Vibrational Cv          2.934 [cal/(mol K)]       12.274 [J/(mol K)]       0.00467503 [mEh/K]
  Total Cv                  8.895 [cal/(mol K)]       37.218 [J/(mol K)]       0.01417546 [mEh/K]
  Correction Cv             0.000 [cal/(mol K)]        0.000 [J/(mol K)]       0.00000000 [mEh/K]

  Constant pressure heat capacity, Cp
    Electronic Cp           0.000 [cal/(mol K)]        0.000 [J/(mol K)]       0.00000000 [mEh/K]
    Translational Cp        4.968 [cal/(mol K)]       20.786 [J/(mol K)]       0.00791703 [mEh/K]
    Rotational Cp           2.981 [cal/(mol K)]       12.472 [J/(mol K)]       0.00475022 [mEh/K]
    Vibrational Cp          2.934 [cal/(mol K)]       12.274 [J/(mol K)]       0.00467503 [mEh/K]
  Total Cp                 10.882 [cal/(mol K)]       45.532 [J/(mol K)]       0.01734227 [mEh/K]
  Correction Cp             0.000 [cal/(mol K)]        0.000 [J/(mol K)]       0.00000000 [mEh/K]

  ==> Thermochemistry Energy Analysis <==

  Raw electronic energy, E0
  Total E0, Electronic energy at well bottom at 0 [K]                 -958.29878741 [Eh]

  Zero-point energy, ZPE_vib = Sum_i nu_i / 2
    Electronic ZPE          0.000 [kcal/mol]        0.000 [kJ/mol]       0.00000000 [Eh]
    Translational ZPE       0.000 [kcal/mol]        0.000 [kJ/mol]       0.00000000 [Eh]
    Rotational ZPE          0.000 [kcal/mol]        0.000 [kJ/mol]       0.00000000 [Eh]
    Vibrational ZPE         2.741 [kcal/mol]       11.468 [kJ/mol]       0.00436794 [Eh]         958.652 [cm^-1]
  Correction ZPE            2.741 [kcal/mol]       11.468 [kJ/mol]       0.00436794 [Eh]         958.652 [cm^-1]
  Total ZPE, Electronic energy at 0 [K]                               -958.29441947 [Eh]

  Thermal Energy, E (includes ZPE)
    Electronic E            0.000 [kcal/mol]        0.000 [kJ/mol]       0.00000000 [Eh]
    Translational E         0.889 [kcal/mol]        3.718 [kJ/mol]       0.00141628 [Eh]
    Rotational E            0.889 [kcal/mol]        3.718 [kJ/mol]       0.00141628 [Eh]
    Vibrational E           3.073 [kcal/mol]       12.859 [kJ/mol]       0.00489758 [Eh]
  Correction E              4.851 [kcal/mol]       20.295 [kJ/mol]       0.00773013 [Eh]
  Total E, Electronic energy at  298.15 [K]                           -958.29105728 [Eh]

  Enthalpy, H_trans = E_trans + k_B * T
    Electronic H            0.000 [kcal/mol]        0.000 [kJ/mol]       0.00000000 [Eh]
    Translational H         1.481 [kcal/mol]        6.197 [kJ/mol]       0.00236046 [Eh]
    Rotational H            0.889 [kcal/mol]        3.718 [kJ/mol]       0.00141628 [Eh]
    Vibrational H           3.073 [kcal/mol]       12.859 [kJ/mol]       0.00489758 [Eh]
  Correction H              5.443 [kcal/mol]       22.774 [kJ/mol]       0.00867432 [Eh]
  Total H, Enthalpy at  298.15 [K]                                    -958.29011309 [Eh]

  Gibbs free energy, G = H - T * S
    Electronic G            0.000 [kcal/mol]        0.000 [kJ/mol]       0.00000000 [Eh]
    Translational G       -10.184 [kcal/mol]      -42.608 [kJ/mol]      -0.01622870 [Eh]
    Rotational G           -5.770 [kcal/mol]      -24.142 [kJ/mol]      -0.00919532 [Eh]
    Vibrational G           2.592 [kcal/mol]       10.843 [kJ/mol]       0.00412988 [Eh]
  Correction G            -13.362 [kcal/mol]      -55.908 [kJ/mol]      -0.02129414 [Eh]
  Total G, Free enthalpy at  298.15 [K]                               -958.32008155 [Eh]

*** Psi4 exiting successfully. Buy a developer a beer!
