                               Psi4 1.3.2 release

  ==> Input File <==

--------------------------------------------------------------------------
memory 144 GB

molecule {
0 1
C 0.0000000000 0.0000000000 0.0000000000
F 0.0000000000 0.0000000000 1.2971000000
F 1.2538059978 0.0000000000 -0.3323235319
}

set dynamic_level 1
set basis cc-pV(T+d)Z

optimize("wB97X-V")
frequencies("wB97X-V")
--------------------------------------------------------------------------

    Molecular point group: c2v
  Charge       = 0
  Multiplicity = 1
  Basis Set: CC-PV(T+D)Z
    Blend: CC-PV(T+D)Z
  Basis Set: (CC-PV(T+D)Z AUX)
    Blend: CC-PVTZ-JKFIT
  @DF-RKS Final Energy:  -237.71445065632344
    Total Energy =                       -237.7144506563234359
    Molecular point group: c2v
  Basis Set: CC-PV(T+D)Z
    Blend: CC-PV(T+D)Z
  Basis Set: (CC-PV(T+D)Z AUX)
    Blend: CC-PVTZ-JKFIT
  @DF-RKS Final Energy:  -237.71446083043506
    Total Energy =                       -237.7144608304350299
  Basis Set: CC-PV(T+D)Z
    Blend: CC-PV(T+D)Z
  Basis Set: (CC-PV(T+D)Z AUX)
    Blend: CC-PVTZ-JKFIT
  @DF-RKS Final Energy:  -237.71443910852940
    Total Energy =                       -237.7144391085294046
  Basis Set: CC-PV(T+D)Z
    Blend: CC-PV(T+D)Z
  Basis Set: (CC-PV(T+D)Z AUX)
    Blend: CC-PVTZ-JKFIT
  @DF-RKS Final Energy:  -237.71444487965019
    Total Energy =                       -237.7144448796501877
  @DF-RKS Final Energy:  -237.71445580961500
    Total Energy =                       -237.7144558096150320
  @DF-RKS Final Energy:  -237.71449482990221
    Total Energy =                       -237.7144948299022076
  @DF-RKS Final Energy:  -237.71449656313513
    Total Energy =                       -237.7144965631351283
  @DF-RKS Final Energy:  -237.71449174261082
    Total Energy =                       -237.7144917426108179
  @DF-RKS Final Energy:  -237.71449245956310
    Total Energy =                       -237.7144924595631039
  @DF-RKS Final Energy:  -237.71449658697338
    Total Energy =                       -237.7144965869733824
  @DF-RKS Final Energy:  -237.71449714523925
    Total Energy =                       -237.7144971452392497
  @DF-RKS Final Energy:  -237.71449689259987
    Total Energy =                       -237.7144968925998683
  @DF-RKS Final Energy:  -237.71449605484548
    Total Energy =                       -237.7144960548454833
  @DF-RKS Final Energy:  -237.71449797977417
    Total Energy =                       -237.7144979797741371
  @DF-RKS Final Energy:  -237.71449570643335
    Total Energy =                       -237.7144957064333539
  @DF-RKS Final Energy:  -237.71449874010113
    Total Energy =                       -237.7144987401011065
  @DF-RKS Final Energy:  -237.71449781632163
    Total Energy =                       -237.7144978163215967
  @DF-RKS Final Energy:  -237.71449831830631
    Total Energy =                       -237.7144983183062834
  @DF-RKS Final Energy:  -237.71449825155682
    Total Energy =                       -237.7144982515568188
  @DF-RKS Final Energy:  -237.71449862091001
    Total Energy =                       -237.7144986209100068
  @DF-RKS Final Energy:  -237.71449883145436
    Total Energy =                       -237.7144988314543639
  @DF-RKS Final Energy:  -237.71449815980139
    Total Energy =                       -237.7144981598013942
  @DF-RKS Final Energy:  -237.71449815754858
    Total Energy =                       -237.7144981575485758
  @DF-RKS Final Energy:  -237.71449852801663
    Total Energy =                       -237.7144985280166338
  @DF-RKS Final Energy:  -237.71449852762061
    Total Energy =                       -237.7144985276206057
  **** Optimization is complete! (in 5 steps) ****
    Final optimized geometry and variables:
  @DF-RKS Final Energy:  -237.71449883145459
    Total Energy =                       -237.7144988314545913
  @DF-RKS Final Energy:  -237.71449815980139
    Total Energy =                       -237.7144981598013942
  @DF-RKS Final Energy:  -237.71449815754838
    Total Energy =                       -237.7144981575483769
  @DF-RKS Final Energy:  -237.71449852801661
    Total Energy =                       -237.7144985280166054
  @DF-RKS Final Energy:  -237.71449852762052
    Total Energy =                       -237.7144985276205205
  @DF-RKS Final Energy:  -237.71449883145465
    Total Energy =                       -237.7144988314546481
  @DF-RKS Final Energy:  -237.71449815980145
    Total Energy =                       -237.7144981598014510
  @DF-RKS Final Energy:  -237.71449815754855
    Total Energy =                       -237.7144981575485758
  @DF-RKS Final Energy:  -237.71449852801669
    Total Energy =                       -237.7144985280166907
  Basis Set: CC-PV(T+D)Z
    Blend: CC-PV(T+D)Z
  Basis Set: (CC-PV(T+D)Z AUX)
    Blend: CC-PVTZ-JKFIT
  @DF-RKS Final Energy:  -237.71449852762078
    Total Energy =                       -237.7144985276207763
  Basis Set: CC-PV(T+D)Z
    Blend: CC-PV(T+D)Z
  Basis Set: (CC-PV(T+D)Z AUX)
    Blend: CC-PVTZ-JKFIT
  @DF-RKS Final Energy:  -237.71449824924696
    Total Energy =                       -237.7144982492469580
  Multiplicity = 1
  Basis Set: CC-PV(T+D)Z
    Blend: CC-PV(T+D)Z
  Basis Set: (CC-PV(T+D)Z AUX)
    Blend: CC-PVTZ-JKFIT
  @DF-RKS Final Energy:  -237.71449825088592
    Total Energy =                       -237.7144982508859243
    Molecular point group: cs

    Geometry (in Angstrom), charge = 0, multiplicity = 1:

       Center              X                  Y                   Z               Mass
    ------------   -----------------  -----------------  -----------------  -----------------
         C            0.000000000000    -0.000622633558    -0.605584111304    12.000000000000
         F            0.000000000000     1.030122004759     0.191405296972    18.998403162730
         F            0.000000000000    -1.029728729460     0.191101025976    18.998403162730

  Charge       = 0
  Multiplicity = 1
  Basis Set: CC-PV(T+D)Z
    Blend: CC-PV(T+D)Z
  Basis Set: (CC-PV(T+D)Z AUX)
    Blend: CC-PVTZ-JKFIT

    Orbital Energies [Eh]
    ---------------------

    Doubly Occupied:

       1Ap   -24.840411     2Ap   -24.839749     3Ap   -10.476017
       4Ap    -1.470960     5Ap    -1.392969     6Ap    -0.830831
       7Ap    -0.718268     1App   -0.675338     8Ap    -0.670304
       2App   -0.592931     9Ap    -0.566717    10Ap    -0.416250

  @DF-RKS Final Energy:  -237.71449819457027

   => Energetics <=

    Nuclear Repulsion Energy =             64.6974900189759552
    One-Electron Energy =                -457.1498213342759982
    Two-Electron Energy =                 173.4760317996966990
    DFT Exchange-Correlation Energy =     -18.8388349288137888
    Empirical Dispersion Energy =           0.0000000000000000
    VV10 Nonlocal Energy =                  0.1006362498468905
    Total Energy =                       -237.7144981945702398

  Dipole Moment: [D]
     X:     0.0000      Y:    -0.0078      Z:     0.6521     Total:     0.6521

  Vibration                       7                   8                   9
  Freq [cm^-1]                 678.6651           1160.3248           1266.3039
  Irrep                           A1                  B2                  A1
  Reduced mass [u]             17.7505             13.6921             13.8380
  Force const [mDyne/A]         4.8169             10.8612             13.0737

  ==> Thermochemistry Components <==

  Entropy, S
    Electronic S            0.000 [cal/(mol K)]        0.000 [J/(mol K)]       0.00000000 [mEh/K] (multiplicity = 1)
    Translational S        37.652 [cal/(mol K)]      157.535 [J/(mol K)]       0.06000175 [mEh/K] (mol. weight = 49.9968 [u], P = 101325.00 [Pa])
    Rotational S           19.444 [cal/(mol K)]       81.352 [J/(mol K)]       0.03098545 [mEh/K] (symmetry no. = 2)
    Vibrational S           0.413 [cal/(mol K)]        1.726 [J/(mol K)]       0.00065736 [mEh/K]
  Total S                  57.508 [cal/(mol K)]      240.613 [J/(mol K)]       0.09164455 [mEh/K]
  Correction S              0.000 [cal/(mol K)]        0.000 [J/(mol K)]       0.00000000 [mEh/K]

  Constant volume heat capacity, Cv
    Electronic Cv           0.000 [cal/(mol K)]        0.000 [J/(mol K)]       0.00000000 [mEh/K]
    Translational Cv        2.981 [cal/(mol K)]       12.472 [J/(mol K)]       0.00475022 [mEh/K]
    Rotational Cv           2.981 [cal/(mol K)]       12.472 [J/(mol K)]       0.00475022 [mEh/K]
    Vibrational Cv          1.268 [cal/(mol K)]        5.306 [J/(mol K)]       0.00202110 [mEh/K]
  Total Cv                  7.230 [cal/(mol K)]       30.250 [J/(mol K)]       0.01152154 [mEh/K]
  Correction Cv             0.000 [cal/(mol K)]        0.000 [J/(mol K)]       0.00000000 [mEh/K]

  Constant pressure heat capacity, Cp
    Electronic Cp           0.000 [cal/(mol K)]        0.000 [J/(mol K)]       0.00000000 [mEh/K]
    Translational Cp        4.968 [cal/(mol K)]       20.786 [J/(mol K)]       0.00791703 [mEh/K]
    Rotational Cp           2.981 [cal/(mol K)]       12.472 [J/(mol K)]       0.00475022 [mEh/K]
    Vibrational Cp          1.268 [cal/(mol K)]        5.306 [J/(mol K)]       0.00202110 [mEh/K]
  Total Cp                  9.217 [cal/(mol K)]       38.564 [J/(mol K)]       0.01468835 [mEh/K]
  Correction Cp             0.000 [cal/(mol K)]        0.000 [J/(mol K)]       0.00000000 [mEh/K]

  ==> Thermochemistry Energy Analysis <==

  Raw electronic energy, E0
  Total E0, Electronic energy at well bottom at 0 [K]                 -237.71449883 [Eh]

  Zero-point energy, ZPE_vib = Sum_i nu_i / 2
    Electronic ZPE          0.000 [kcal/mol]        0.000 [kJ/mol]       0.00000000 [Eh]
    Translational ZPE       0.000 [kcal/mol]        0.000 [kJ/mol]       0.00000000 [Eh]
    Rotational ZPE          0.000 [kcal/mol]        0.000 [kJ/mol]       0.00000000 [Eh]
    Vibrational ZPE         4.439 [kcal/mol]       18.574 [kJ/mol]       0.00707438 [Eh]        1552.647 [cm^-1]
  Correction ZPE            4.439 [kcal/mol]       18.574 [kJ/mol]       0.00707438 [Eh]        1552.647 [cm^-1]
  Total ZPE, Electronic energy at 0 [K]                               -237.70742445 [Eh]

  Thermal Energy, E (includes ZPE)
    Electronic E            0.000 [kcal/mol]        0.000 [kJ/mol]       0.00000000 [Eh]
    Translational E         0.889 [kcal/mol]        3.718 [kJ/mol]       0.00141628 [Eh]
    Rotational E            0.889 [kcal/mol]        3.718 [kJ/mol]       0.00141628 [Eh]
    Vibrational E           4.536 [kcal/mol]       18.978 [kJ/mol]       0.00722838 [Eh]
  Correction E              6.313 [kcal/mol]       26.415 [kJ/mol]       0.01006093 [Eh]
  Total E, Electronic energy at  298.15 [K]                           -237.70443790 [Eh]

  Enthalpy, H_trans = E_trans + k_B * T
    Electronic H            0.000 [kcal/mol]        0.000 [kJ/mol]       0.00000000 [Eh]
    Translational H         1.481 [kcal/mol]        6.197 [kJ/mol]       0.00236046 [Eh]
    Rotational H            0.889 [kcal/mol]        3.718 [kJ/mol]       0.00141628 [Eh]
    Vibrational H           4.536 [kcal/mol]       18.978 [kJ/mol]       0.00722838 [Eh]
  Correction H              6.906 [kcal/mol]       28.894 [kJ/mol]       0.01100512 [Eh]
  Total H, Enthalpy at  298.15 [K]                                    -237.70349372 [Eh]

  Gibbs free energy, G = H - T * S
    Electronic G            0.000 [kcal/mol]        0.000 [kJ/mol]       0.00000000 [Eh]
    Translational G        -9.745 [kcal/mol]      -40.772 [kJ/mol]      -0.01552906 [Eh]
    Rotational G           -4.908 [kcal/mol]      -20.537 [kJ/mol]      -0.00782203 [Eh]
    Vibrational G           4.413 [kcal/mol]       18.464 [kJ/mol]       0.00703238 [Eh]
  Correction G            -10.240 [kcal/mol]      -42.845 [kJ/mol]      -0.01631871 [Eh]
  Total G, Free enthalpy at  298.15 [K]                               -237.73081754 [Eh]

*** Psi4 exiting successfully. Buy a developer a beer!
