                               Psi4 1.3.2 release

  ==> Input File <==

--------------------------------------------------------------------------
memory 144 GB

molecule {
0 1
Cl 0.0000000000 0.0000000000 0.0000000000
Cl 0.0000000000 0.0000000000 1.9965761200
}

set dynamic_level 1
set basis cc-pV(T+d)Z

optimize("wB97X-V")
frequencies("wB97X-V")
--------------------------------------------------------------------------

    Molecular point group: d2h
  Charge       = 0
  Multiplicity = 1
  Basis Set: CC-PV(T+D)Z
    Blend: CC-PV(T+D)Z
  Basis Set: (CC-PV(T+D)Z AUX)
    Blend: CC-PVTZ-JKFIT
  @DF-RKS Final Energy:  -920.26709509759701
    Total Energy =                       -920.2670950975968935
    Molecular point group: d2h
  Basis Set: CC-PV(T+D)Z
    Blend: CC-PV(T+D)Z
  Basis Set: (CC-PV(T+D)Z AUX)
    Blend: CC-PVTZ-JKFIT
  @DF-RKS Final Energy:  -920.26708618573525
    Total Energy =                       -920.2670861857352520
  Basis Set: CC-PV(T+D)Z
    Blend: CC-PV(T+D)Z
  Basis Set: (CC-PV(T+D)Z AUX)
    Blend: CC-PVTZ-JKFIT
  @DF-RKS Final Energy:  -920.26710370151523
    Total Energy =                       -920.2671037015149977
  Basis Set: CC-PV(T+D)Z
    Blend: CC-PV(T+D)Z
  Basis Set: (CC-PV(T+D)Z AUX)
    Blend: CC-PVTZ-JKFIT
  @DF-RKS Final Energy:  -920.26720037012205
    Total Energy =                       -920.2672003701221684
  @DF-RKS Final Energy:  -920.26719698212821
    Total Energy =                       -920.2671969821282119
  @DF-RKS Final Energy:  -920.26720343385728
    Total Energy =                       -920.2672034338572757
  @DF-RKS Final Energy:  -920.26721623652111
    Total Energy =                       -920.2672162365212216
  @DF-RKS Final Energy:  -920.26721620217165
    Total Energy =                       -920.2672162021715394
  @DF-RKS Final Energy:  -920.26721593661478
    Total Energy =                       -920.2672159366147753
  **** Optimization is complete! (in 3 steps) ****
    Final optimized geometry and variables:
  @DF-RKS Final Energy:  -920.26721623652077
    Total Energy =                       -920.2672162365208806
  @DF-RKS Final Energy:  -920.26721620223441
    Total Energy =                       -920.2672162022344082
  Basis Set: CC-PV(T+D)Z
    Blend: CC-PV(T+D)Z
  Basis Set: (CC-PV(T+D)Z AUX)
    Blend: CC-PVTZ-JKFIT
  @DF-RKS Final Energy:  -920.26721593664558
    Total Energy =                       -920.2672159366454707
  Basis Set: CC-PV(T+D)Z
    Blend: CC-PV(T+D)Z
  Basis Set: (CC-PV(T+D)Z AUX)
    Blend: CC-PVTZ-JKFIT
  @DF-RKS Final Energy:  -920.26721623652031
    Total Energy =                       -920.2672162365204258
  Multiplicity = 1
  Basis Set: CC-PV(T+D)Z
    Blend: CC-PV(T+D)Z
  Basis Set: (CC-PV(T+D)Z AUX)
    Blend: CC-PVTZ-JKFIT
  @DF-RKS Final Energy:  -920.26721620223373
    Total Energy =                       -920.2672162022337261
    Molecular point group: d2h

    Geometry (in Angstrom), charge = 0, multiplicity = 1:

       Center              X                  Y                   Z               Mass
    ------------   -----------------  -----------------  -----------------  -----------------
         CL           0.000000000000     0.000000000000    -0.989206957227    34.968852682000
         CL           0.000000000000     0.000000000000     0.989206957227    34.968852682000

  Charge       = 0
  Multiplicity = 1
  Basis Set: CC-PV(T+D)Z
    Blend: CC-PV(T+D)Z
  Basis Set: (CC-PV(T+D)Z AUX)
    Blend: CC-PVTZ-JKFIT

    Orbital Energies [Eh]
    ---------------------

    Doubly Occupied:

       1B1u -101.603512     1Ag  -101.603507     2Ag    -9.616644
       2B1u   -9.616600     3Ag    -7.376323     3B1u   -7.376164
       1B3u   -7.361814     1B2u   -7.361814     1B2g   -7.361814
       1B3g   -7.361814     4Ag    -1.070702     4B1u   -0.890823
       5Ag    -0.572736     2B3u   -0.523773     2B2u   -0.523773
       2B2g   -0.407787     2B3g   -0.407787

  @DF-RKS Final Energy:  -920.26721593664467

   => Energetics <=

    Nuclear Repulsion Energy =             77.3004136122879686
    One-Electron Energy =               -1423.9427386895440577
    Two-Electron Energy =                 468.9364573465447847
    DFT Exchange-Correlation Energy =     -42.7036775432581308
    Empirical Dispersion Energy =           0.0000000000000000
    VV10 Nonlocal Energy =                  0.1423293373247469
    Total Energy =                       -920.2672159366446749

  Dipole Moment: [D]
     X:     0.0000      Y:     0.0000      Z:    -0.0000     Total:     0.0000

  Vibration                       6
  Freq [cm^-1]                 594.3099
  Irrep                           Ag
  Reduced mass [u]             34.9689
  Force const [mDyne/A]         7.2771

  ==> Thermochemistry Components <==

  Entropy, S
    Electronic S            0.000 [cal/(mol K)]        0.000 [J/(mol K)]       0.00000000 [mEh/K] (multiplicity = 1)
    Translational S        38.652 [cal/(mol K)]      161.721 [J/(mol K)]       0.06159614 [mEh/K] (mol. weight = 69.9377 [u], P = 101325.00 [Pa])
    Rotational S           13.995 [cal/(mol K)]       58.554 [J/(mol K)]       0.02230193 [mEh/K] (symmetry no. = 2)
    Vibrational S           0.460 [cal/(mol K)]        1.923 [J/(mol K)]       0.00073233 [mEh/K]
  Total S                  53.106 [cal/(mol K)]      222.197 [J/(mol K)]       0.08463039 [mEh/K]
  Correction S              0.000 [cal/(mol K)]        0.000 [J/(mol K)]       0.00000000 [mEh/K]

  Constant volume heat capacity, Cv
    Electronic Cv           0.000 [cal/(mol K)]        0.000 [J/(mol K)]       0.00000000 [mEh/K]
    Translational Cv        2.981 [cal/(mol K)]       12.472 [J/(mol K)]       0.00475022 [mEh/K]
    Rotational Cv           1.987 [cal/(mol K)]        8.314 [J/(mol K)]       0.00316681 [mEh/K]
    Vibrational Cv          1.044 [cal/(mol K)]        4.368 [J/(mol K)]       0.00166355 [mEh/K]
  Total Cv                  6.012 [cal/(mol K)]       25.154 [J/(mol K)]       0.00958058 [mEh/K]
  Correction Cv             0.000 [cal/(mol K)]        0.000 [J/(mol K)]       0.00000000 [mEh/K]

  Constant pressure heat capacity, Cp
    Electronic Cp           0.000 [cal/(mol K)]        0.000 [J/(mol K)]       0.00000000 [mEh/K]
    Translational Cp        4.968 [cal/(mol K)]       20.786 [J/(mol K)]       0.00791703 [mEh/K]
    Rotational Cp           1.987 [cal/(mol K)]        8.314 [J/(mol K)]       0.00316681 [mEh/K]
    Vibrational Cp          1.044 [cal/(mol K)]        4.368 [J/(mol K)]       0.00166355 [mEh/K]
  Total Cp                  7.999 [cal/(mol K)]       33.468 [J/(mol K)]       0.01274739 [mEh/K]
  Correction Cp             0.000 [cal/(mol K)]        0.000 [J/(mol K)]       0.00000000 [mEh/K]

  ==> Thermochemistry Energy Analysis <==

  Raw electronic energy, E0
  Total E0, Electronic energy at well bottom at 0 [K]                 -920.26721624 [Eh]

  Zero-point energy, ZPE_vib = Sum_i nu_i / 2
    Electronic ZPE          0.000 [kcal/mol]        0.000 [kJ/mol]       0.00000000 [Eh]
    Translational ZPE       0.000 [kcal/mol]        0.000 [kJ/mol]       0.00000000 [Eh]
    Rotational ZPE          0.000 [kcal/mol]        0.000 [kJ/mol]       0.00000000 [Eh]
    Vibrational ZPE         0.850 [kcal/mol]        3.555 [kJ/mol]       0.00135394 [Eh]         297.155 [cm^-1]
  Correction ZPE            0.850 [kcal/mol]        3.555 [kJ/mol]       0.00135394 [Eh]         297.155 [cm^-1]
  Total ZPE, Electronic energy at 0 [K]                               -920.26586230 [Eh]

  Thermal Energy, E (includes ZPE)
    Electronic E            0.000 [kcal/mol]        0.000 [kJ/mol]       0.00000000 [Eh]
    Translational E         0.889 [kcal/mol]        3.718 [kJ/mol]       0.00141628 [Eh]
    Rotational E            0.592 [kcal/mol]        2.479 [kJ/mol]       0.00094418 [Eh]
    Vibrational E           0.952 [kcal/mol]        3.983 [kJ/mol]       0.00151705 [Eh]
  Correction E              2.433 [kcal/mol]       10.180 [kJ/mol]       0.00387751 [Eh]
  Total E, Electronic energy at  298.15 [K]                           -920.26333872 [Eh]

  Enthalpy, H_trans = E_trans + k_B * T
    Electronic H            0.000 [kcal/mol]        0.000 [kJ/mol]       0.00000000 [Eh]
    Translational H         1.481 [kcal/mol]        6.197 [kJ/mol]       0.00236046 [Eh]
    Rotational H            0.592 [kcal/mol]        2.479 [kJ/mol]       0.00094418 [Eh]
    Vibrational H           0.952 [kcal/mol]        3.983 [kJ/mol]       0.00151705 [Eh]
  Correction H              3.026 [kcal/mol]       12.659 [kJ/mol]       0.00482170 [Eh]
  Total H, Enthalpy at  298.15 [K]                                    -920.26239454 [Eh]

  Gibbs free energy, G = H - T * S
    Electronic G            0.000 [kcal/mol]        0.000 [kJ/mol]       0.00000000 [Eh]
    Translational G       -10.043 [kcal/mol]      -42.020 [kJ/mol]      -0.01600443 [Eh]
    Rotational G           -3.580 [kcal/mol]      -14.979 [kJ/mol]      -0.00570513 [Eh]
    Vibrational G           0.815 [kcal/mol]        3.410 [kJ/mol]       0.00129871 [Eh]
  Correction G            -12.808 [kcal/mol]      -53.589 [kJ/mol]      -0.02041085 [Eh]
  Total G, Free enthalpy at  298.15 [K]                               -920.28762709 [Eh]

*** Psi4 exiting successfully. Buy a developer a beer!
