                               Psi4 1.3.2 release

  ==> Input File <==

--------------------------------------------------------------------------
memory 144 GB

molecule {
0 1
Cl 0.0000000000 0.0000000000 0.0000000000
C 0.0000000000 0.0000000000 1.6357056100
N 0.0000000000 0.0000000000 2.7976884200
}

set dynamic_level 1
set basis cc-pV(T+d)Z

optimize("wB97X-V")
frequencies("wB97X-V")
--------------------------------------------------------------------------

    Molecular point group: c2v
  Charge       = 0
  Multiplicity = 1
  Basis Set: CC-PV(T+D)Z
    Blend: CC-PV(T+D)Z
  Basis Set: (CC-PV(T+D)Z AUX)
    Blend: CC-PVTZ-JKFIT
  @DF-RKS Final Energy:  -552.96938289700756
    Total Energy =                       -552.9693828970075629
    Molecular point group: c2v
  Basis Set: CC-PV(T+D)Z
    Blend: CC-PV(T+D)Z
  Basis Set: (CC-PV(T+D)Z AUX)
    Blend: CC-PVTZ-JKFIT
  @DF-RKS Final Energy:  -552.96937813385910
    Total Energy =                       -552.9693781338590952
  Basis Set: CC-PV(T+D)Z
    Blend: CC-PV(T+D)Z
  Basis Set: (CC-PV(T+D)Z AUX)
    Blend: CC-PVTZ-JKFIT
  @DF-RKS Final Energy:  -552.96938707460401
    Total Energy =                       -552.9693870746041284
  Basis Set: CC-PV(T+D)Z
    Blend: CC-PV(T+D)Z
  Basis Set: (CC-PV(T+D)Z AUX)
    Blend: CC-PVTZ-JKFIT
  @DF-RKS Final Energy:  -552.96933356320062
    Total Energy =                       -552.9693335632005073
  @DF-RKS Final Energy:  -552.96942729821342
    Total Energy =                       -552.9694272982134180
  @DF-RKS Final Energy:  -552.96966672024496
    Total Energy =                       -552.9696667202449589
  @DF-RKS Final Energy:  -552.96966590592376
    Total Energy =                       -552.9696659059237618
  @DF-RKS Final Energy:  -552.96966693492527
    Total Energy =                       -552.9696669349250442
  @DF-RKS Final Energy:  -552.96966347558441
    Total Energy =                       -552.9696634755842979
  @DF-RKS Final Energy:  -552.96966469683332
    Total Energy =                       -552.9696646968335472
  @DF-RKS Final Energy:  -552.96966703594228
    Total Energy =                       -552.9696670359422797
  @DF-RKS Final Energy:  -552.96966665297077
    Total Energy =                       -552.9696666529707727
  @DF-RKS Final Energy:  -552.96966681771062
    Total Energy =                       -552.9696668177105039
  @DF-RKS Final Energy:  -552.96966455386018
    Total Energy =                       -552.9696645538601842
  @DF-RKS Final Energy:  -552.96966424195421
    Total Energy =                       -552.9696642419542059
  **** Optimization is complete! (in 3 steps) ****
    Final optimized geometry and variables:
  @DF-RKS Final Energy:  -552.96966703594217
    Total Energy =                       -552.9696670359422797
  @DF-RKS Final Energy:  -552.96966665296941
    Total Energy =                       -552.9696666529694085
  @DF-RKS Final Energy:  -552.96966681780816
    Total Energy =                       -552.9696668178082746
  @DF-RKS Final Energy:  -552.96966455386053
    Total Energy =                       -552.9696645538606390
  @DF-RKS Final Energy:  -552.96966424204720
    Total Energy =                       -552.9696642420473154
  @DF-RKS Final Energy:  -552.96966703594194
    Total Energy =                       -552.9696670359420523
  @DF-RKS Final Energy:  -552.96966665296952
    Total Energy =                       -552.9696666529696358
  @DF-RKS Final Energy:  -552.96966681780930
    Total Energy =                       -552.9696668178091841
  @DF-RKS Final Energy:  -552.96966455386098
    Total Energy =                       -552.9696645538609800
  @DF-RKS Final Energy:  -552.96966424204766
    Total Energy =                       -552.9696642420475428
  Basis Set: CC-PV(T+D)Z
    Blend: CC-PV(T+D)Z
  Basis Set: (CC-PV(T+D)Z AUX)
    Blend: CC-PVTZ-JKFIT
  @DF-RKS Final Energy:  -552.96966447328873
    Total Energy =                       -552.9696644732887307
  Basis Set: CC-PV(T+D)Z
    Blend: CC-PV(T+D)Z
  Basis Set: (CC-PV(T+D)Z AUX)
    Blend: CC-PVTZ-JKFIT
  @DF-RKS Final Energy:  -552.96966461893510
    Total Energy =                       -552.9696646189350986
  Multiplicity = 1
  Basis Set: CC-PV(T+D)Z
    Blend: CC-PV(T+D)Z
  Basis Set: (CC-PV(T+D)Z AUX)
    Blend: CC-PVTZ-JKFIT
  @DF-RKS Final Energy:  -552.96966695397191
    Total Energy =                       -552.9696669539720233
    Molecular point group: cs

    Geometry (in Angstrom), charge = 0, multiplicity = 1:

       Center              X                  Y                   Z               Mass
    ------------   -----------------  -----------------  -----------------  -----------------
         CL           0.000000000000    -0.000093213664    -0.959996667247    34.968852682000
         C            0.000000000000     0.000656573619     0.671161660025    12.000000000000
         N            0.000000000000    -0.000329878179     1.822174338563    14.003074004430

  Charge       = 0
  Multiplicity = 1
  Basis Set: CC-PV(T+D)Z
    Blend: CC-PV(T+D)Z
  Basis Set: (CC-PV(T+D)Z AUX)
    Blend: CC-PVTZ-JKFIT

    Orbital Energies [Eh]
    ---------------------

    Doubly Occupied:

       1Ap  -101.636444     2Ap   -14.439029     3Ap   -10.374782
       4Ap    -9.651542     5Ap    -7.408754     1App   -7.397786
       6Ap    -7.397786     7Ap    -1.099811     8Ap    -1.036685
       9Ap    -0.691802     2App   -0.557857    10Ap    -0.557857
      11Ap    -0.504355     3App   -0.440136    12Ap    -0.440136

  @DF-RKS Final Energy:  -552.96966695402648

   => Energetics <=

    Nuclear Repulsion Energy =             75.0342535630405507
    One-Electron Energy =                -908.3905653450939326
    Two-Electron Energy =                 310.2424215928555782
    DFT Exchange-Correlation Energy =     -29.9802000359938532
    Empirical Dispersion Energy =           0.0000000000000000
    VV10 Nonlocal Energy =                  0.1244232711652399
    Total Energy =                       -552.9696669540263656

  Dipole Moment: [D]
     X:     0.0000      Y:     0.0008      Z:    -2.8850     Total:     2.8850

  Vibration                       6                   7                   8
  Freq [cm^-1]                 416.1330            416.2716            768.2757
  Irrep                           B2                  B1                  A1
  Reduced mass [u]             12.7611             12.7611             17.9687
  Force const [mDyne/A]         1.3020              1.3028              6.2489

  Vibration                       9
  Freq [cm^-1]                2371.0196
  Irrep                           A1
  Reduced mass [u]             12.7409
  Force const [mDyne/A]        42.2006

  ==> Thermochemistry Components <==

  Entropy, S
    Electronic S            0.000 [cal/(mol K)]        0.000 [J/(mol K)]       0.00000000 [mEh/K] (multiplicity = 1)
    Translational S        38.243 [cal/(mol K)]      160.010 [J/(mol K)]       0.06094445 [mEh/K] (mol. weight = 60.9719 [u], P = 101325.00 [Pa])
    Rotational S           15.781 [cal/(mol K)]       66.028 [J/(mol K)]       0.02514869 [mEh/K] (symmetry no. = 1)
    Vibrational S           2.045 [cal/(mol K)]        8.556 [J/(mol K)]       0.00325878 [mEh/K]
  Total S                  56.069 [cal/(mol K)]      234.593 [J/(mol K)]       0.08935191 [mEh/K]
  Correction S              0.000 [cal/(mol K)]        0.000 [J/(mol K)]       0.00000000 [mEh/K]

  Constant volume heat capacity, Cv
    Electronic Cv           0.000 [cal/(mol K)]        0.000 [J/(mol K)]       0.00000000 [mEh/K]
    Translational Cv        2.981 [cal/(mol K)]       12.472 [J/(mol K)]       0.00475022 [mEh/K]
    Rotational Cv           1.987 [cal/(mol K)]        8.314 [J/(mol K)]       0.00316681 [mEh/K]
    Vibrational Cv          3.577 [cal/(mol K)]       14.968 [J/(mol K)]       0.00570084 [mEh/K]
  Total Cv                  8.545 [cal/(mol K)]       35.754 [J/(mol K)]       0.01361786 [mEh/K]
  Correction Cv             0.000 [cal/(mol K)]        0.000 [J/(mol K)]       0.00000000 [mEh/K]

  Constant pressure heat capacity, Cp
    Electronic Cp           0.000 [cal/(mol K)]        0.000 [J/(mol K)]       0.00000000 [mEh/K]
    Translational Cp        4.968 [cal/(mol K)]       20.786 [J/(mol K)]       0.00791703 [mEh/K]
    Rotational Cp           1.987 [cal/(mol K)]        8.314 [J/(mol K)]       0.00316681 [mEh/K]
    Vibrational Cp          3.577 [cal/(mol K)]       14.968 [J/(mol K)]       0.00570084 [mEh/K]
  Total Cp                 10.533 [cal/(mol K)]       44.068 [J/(mol K)]       0.01678468 [mEh/K]
  Correction Cp             0.000 [cal/(mol K)]        0.000 [J/(mol K)]       0.00000000 [mEh/K]

  ==> Thermochemistry Energy Analysis <==

  Raw electronic energy, E0
  Total E0, Electronic energy at well bottom at 0 [K]                 -552.96966704 [Eh]

  Zero-point energy, ZPE_vib = Sum_i nu_i / 2
    Electronic ZPE          0.000 [kcal/mol]        0.000 [kJ/mol]       0.00000000 [Eh]
    Translational ZPE       0.000 [kcal/mol]        0.000 [kJ/mol]       0.00000000 [Eh]
    Rotational ZPE          0.000 [kcal/mol]        0.000 [kJ/mol]       0.00000000 [Eh]
    Vibrational ZPE         5.678 [kcal/mol]       23.756 [kJ/mol]       0.00904820 [Eh]        1985.850 [cm^-1]
  Correction ZPE            5.678 [kcal/mol]       23.756 [kJ/mol]       0.00904820 [Eh]        1985.850 [cm^-1]
  Total ZPE, Electronic energy at 0 [K]                               -552.96061884 [Eh]

  Thermal Energy, E (includes ZPE)
    Electronic E            0.000 [kcal/mol]        0.000 [kJ/mol]       0.00000000 [Eh]
    Translational E         0.889 [kcal/mol]        3.718 [kJ/mol]       0.00141628 [Eh]
    Rotational E            0.592 [kcal/mol]        2.479 [kJ/mol]       0.00094418 [Eh]
    Vibrational E           6.102 [kcal/mol]       25.531 [kJ/mol]       0.00972423 [Eh]
  Correction E              7.583 [kcal/mol]       31.728 [kJ/mol]       0.01208469 [Eh]
  Total E, Electronic energy at  298.15 [K]                           -552.95758235 [Eh]

  Enthalpy, H_trans = E_trans + k_B * T
    Electronic H            0.000 [kcal/mol]        0.000 [kJ/mol]       0.00000000 [Eh]
    Translational H         1.481 [kcal/mol]        6.197 [kJ/mol]       0.00236046 [Eh]
    Rotational H            0.592 [kcal/mol]        2.479 [kJ/mol]       0.00094418 [Eh]
    Vibrational H           6.102 [kcal/mol]       25.531 [kJ/mol]       0.00972423 [Eh]
  Correction H              8.176 [kcal/mol]       34.207 [kJ/mol]       0.01302887 [Eh]
  Total H, Enthalpy at  298.15 [K]                                    -552.95663816 [Eh]

  Gibbs free energy, G = H - T * S
    Electronic G            0.000 [kcal/mol]        0.000 [kJ/mol]       0.00000000 [Eh]
    Translational G        -9.921 [kcal/mol]      -41.509 [kJ/mol]      -0.01581013 [Eh]
    Rotational G           -4.113 [kcal/mol]      -17.207 [kJ/mol]      -0.00655390 [Eh]
    Vibrational G           5.492 [kcal/mol]       22.980 [kJ/mol]       0.00875262 [Eh]
  Correction G             -8.541 [kcal/mol]      -35.737 [kJ/mol]      -0.01361140 [Eh]
  Total G, Free enthalpy at  298.15 [K]                               -552.98327844 [Eh]

*** Psi4 exiting successfully. Buy a developer a beer!
