                               Psi4 1.3.2 release

  ==> Input File <==

--------------------------------------------------------------------------
memory 144 GB

molecule {
0 1
Cl 0.0000000000 0.0000000000 0.0000000000
F 0.0000000000 0.0000000000 1.6318233300
}

set dynamic_level 1
set basis cc-pV(T+d)Z

optimize("wB97X-V")
frequencies("wB97X-V")
--------------------------------------------------------------------------

    Molecular point group: c2v
  Charge       = 0
  Multiplicity = 1
  Basis Set: CC-PV(T+D)Z
    Blend: CC-PV(T+D)Z
  Basis Set: (CC-PV(T+D)Z AUX)
    Blend: CC-PVTZ-JKFIT
  @DF-RKS Final Energy:  -559.91237012702800
    Total Energy =                       -559.9123701270279980
    Molecular point group: c2v
  Basis Set: CC-PV(T+D)Z
    Blend: CC-PV(T+D)Z
  Basis Set: (CC-PV(T+D)Z AUX)
    Blend: CC-PVTZ-JKFIT
  @DF-RKS Final Energy:  -559.91236008866929
    Total Energy =                       -559.9123600886692884
  Basis Set: CC-PV(T+D)Z
    Blend: CC-PV(T+D)Z
  Basis Set: (CC-PV(T+D)Z AUX)
    Blend: CC-PVTZ-JKFIT
  @DF-RKS Final Energy:  -559.91237953658754
    Total Energy =                       -559.9123795365875367
  Basis Set: CC-PV(T+D)Z
    Blend: CC-PV(T+D)Z
  Basis Set: (CC-PV(T+D)Z AUX)
    Blend: CC-PVTZ-JKFIT
  @DF-RKS Final Energy:  -559.91243714249208
    Total Energy =                       -559.9124371424920810
  @DF-RKS Final Energy:  -559.91243383984863
    Total Energy =                       -559.9124338398486316
  @DF-RKS Final Energy:  -559.91243978990860
    Total Energy =                       -559.9124397899084897
  @DF-RKS Final Energy:  -559.91244385316998
    Total Energy =                       -559.9124438531699752
  @DF-RKS Final Energy:  -559.91244360916903
    Total Energy =                       -559.9124436091690313
  @DF-RKS Final Energy:  -559.91244343000938
    Total Energy =                       -559.9124434300092616
  **** Optimization is complete! (in 3 steps) ****
    Final optimized geometry and variables:
  @DF-RKS Final Energy:  -559.91244385316952
    Total Energy =                       -559.9124438531696342
  @DF-RKS Final Energy:  -559.91244360916062
    Total Energy =                       -559.9124436091605048
  Basis Set: CC-PV(T+D)Z
    Blend: CC-PV(T+D)Z
  Basis Set: (CC-PV(T+D)Z AUX)
    Blend: CC-PVTZ-JKFIT
  @DF-RKS Final Energy:  -559.91244343000949
    Total Energy =                       -559.9124434300093753
  Basis Set: CC-PV(T+D)Z
    Blend: CC-PV(T+D)Z
  Basis Set: (CC-PV(T+D)Z AUX)
    Blend: CC-PVTZ-JKFIT
  @DF-RKS Final Energy:  -559.91244385316975
    Total Energy =                       -559.9124438531696342
  Multiplicity = 1
  Basis Set: CC-PV(T+D)Z
    Blend: CC-PV(T+D)Z
  Basis Set: (CC-PV(T+D)Z AUX)
    Blend: CC-PVTZ-JKFIT
  @DF-RKS Final Energy:  -559.91244360916085
    Total Energy =                       -559.9124436091609596
    Molecular point group: c2v

    Geometry (in Angstrom), charge = 0, multiplicity = 1:

       Center              X                  Y                   Z               Mass
    ------------   -----------------  -----------------  -----------------  -----------------
         CL           0.000000000000     0.000000000000    -0.570172658628    34.968852682000
         F            0.000000000000     0.000000000000     1.049471554640    18.998403162730

  Charge       = 0
  Multiplicity = 1
  Basis Set: CC-PV(T+D)Z
    Blend: CC-PV(T+D)Z
  Basis Set: (CC-PV(T+D)Z AUX)
    Blend: CC-PVTZ-JKFIT

    Orbital Energies [Eh]
    ---------------------

    Doubly Occupied:

       1A1  -101.631735     2A1   -24.813370     3A1    -9.642133
       4A1    -7.404801     1B2    -7.386015     1B1    -7.386015
       5A1    -1.374502     6A1    -0.960457     7A1    -0.643496
       2B2    -0.605076     2B1    -0.605076     3B1    -0.435989
       3B2    -0.435989

  @DF-RKS Final Energy:  -559.91244343000892

   => Energetics <=

    Nuclear Repulsion Energy =             49.9888262923549291
    One-Electron Energy =                -873.5086750845434835
    Two-Electron Energy =                 292.3873437000564763
    DFT Exchange-Correlation Energy =     -28.8898038655920999
    Empirical Dispersion Energy =           0.0000000000000000
    VV10 Nonlocal Energy =                  0.1098655277153288
    Total Energy =                       -559.9124434300088069

  Dipole Moment: [D]
     X:     0.0000      Y:     0.0000      Z:    -0.9080     Total:     0.9080

  Vibration                       6
  Freq [cm^-1]                 839.7546
  Irrep                           A1
  Reduced mass [u]             22.6381
  Force const [mDyne/A]         9.4058

  ==> Thermochemistry Components <==

  Entropy, S
    Electronic S            0.000 [cal/(mol K)]        0.000 [J/(mol K)]       0.00000000 [mEh/K] (multiplicity = 1)
    Translational S        37.879 [cal/(mol K)]      158.488 [J/(mol K)]       0.06036475 [mEh/K] (mol. weight = 53.9673 [u], P = 101325.00 [Pa])
    Rotational S           13.880 [cal/(mol K)]       58.075 [J/(mol K)]       0.02211947 [mEh/K] (symmetry no. = 1)
    Vibrational S           0.177 [cal/(mol K)]        0.742 [J/(mol K)]       0.00028252 [mEh/K]
  Total S                  51.937 [cal/(mol K)]      217.304 [J/(mol K)]       0.08276674 [mEh/K]
  Correction S              0.000 [cal/(mol K)]        0.000 [J/(mol K)]       0.00000000 [mEh/K]

  Constant volume heat capacity, Cv
    Electronic Cv           0.000 [cal/(mol K)]        0.000 [J/(mol K)]       0.00000000 [mEh/K]
    Translational Cv        2.981 [cal/(mol K)]       12.472 [J/(mol K)]       0.00475022 [mEh/K]
    Rotational Cv           1.987 [cal/(mol K)]        8.314 [J/(mol K)]       0.00316681 [mEh/K]
    Vibrational Cv          0.587 [cal/(mol K)]        2.458 [J/(mol K)]       0.00093615 [mEh/K]
  Total Cv                  5.555 [cal/(mol K)]       23.244 [J/(mol K)]       0.00885317 [mEh/K]
  Correction Cv             0.000 [cal/(mol K)]        0.000 [J/(mol K)]       0.00000000 [mEh/K]

  Constant pressure heat capacity, Cp
    Electronic Cp           0.000 [cal/(mol K)]        0.000 [J/(mol K)]       0.00000000 [mEh/K]
    Translational Cp        4.968 [cal/(mol K)]       20.786 [J/(mol K)]       0.00791703 [mEh/K]
    Rotational Cp           1.987 [cal/(mol K)]        8.314 [J/(mol K)]       0.00316681 [mEh/K]
    Vibrational Cp          0.587 [cal/(mol K)]        2.458 [J/(mol K)]       0.00093615 [mEh/K]
  Total Cp                  7.543 [cal/(mol K)]       31.558 [J/(mol K)]       0.01201998 [mEh/K]
  Correction Cp             0.000 [cal/(mol K)]        0.000 [J/(mol K)]       0.00000000 [mEh/K]

  ==> Thermochemistry Energy Analysis <==

  Raw electronic energy, E0
  Total E0, Electronic energy at well bottom at 0 [K]                 -559.91244385 [Eh]

  Zero-point energy, ZPE_vib = Sum_i nu_i / 2
    Electronic ZPE          0.000 [kcal/mol]        0.000 [kJ/mol]       0.00000000 [Eh]
    Translational ZPE       0.000 [kcal/mol]        0.000 [kJ/mol]       0.00000000 [Eh]
    Rotational ZPE          0.000 [kcal/mol]        0.000 [kJ/mol]       0.00000000 [Eh]
    Vibrational ZPE         1.200 [kcal/mol]        5.023 [kJ/mol]       0.00191310 [Eh]         419.877 [cm^-1]
  Correction ZPE            1.200 [kcal/mol]        5.023 [kJ/mol]       0.00191310 [Eh]         419.877 [cm^-1]
  Total ZPE, Electronic energy at 0 [K]                               -559.91053075 [Eh]

  Thermal Energy, E (includes ZPE)
    Electronic E            0.000 [kcal/mol]        0.000 [kJ/mol]       0.00000000 [Eh]
    Translational E         0.889 [kcal/mol]        3.718 [kJ/mol]       0.00141628 [Eh]
    Rotational E            0.592 [kcal/mol]        2.479 [kJ/mol]       0.00094418 [Eh]
    Vibrational E           1.243 [kcal/mol]        5.201 [kJ/mol]       0.00198078 [Eh]
  Correction E              2.724 [kcal/mol]       11.398 [kJ/mol]       0.00434124 [Eh]
  Total E, Electronic energy at  298.15 [K]                           -559.90810261 [Eh]

  Enthalpy, H_trans = E_trans + k_B * T
    Electronic H            0.000 [kcal/mol]        0.000 [kJ/mol]       0.00000000 [Eh]
    Translational H         1.481 [kcal/mol]        6.197 [kJ/mol]       0.00236046 [Eh]
    Rotational H            0.592 [kcal/mol]        2.479 [kJ/mol]       0.00094418 [Eh]
    Vibrational H           1.243 [kcal/mol]        5.201 [kJ/mol]       0.00198078 [Eh]
  Correction H              3.317 [kcal/mol]       13.877 [kJ/mol]       0.00528543 [Eh]
  Total H, Enthalpy at  298.15 [K]                                    -559.90715843 [Eh]

  Gibbs free energy, G = H - T * S
    Electronic G            0.000 [kcal/mol]        0.000 [kJ/mol]       0.00000000 [Eh]
    Translational G        -9.813 [kcal/mol]      -41.056 [kJ/mol]      -0.01563729 [Eh]
    Rotational G           -3.546 [kcal/mol]      -14.836 [kJ/mol]      -0.00565074 [Eh]
    Vibrational G           1.190 [kcal/mol]        4.979 [kJ/mol]       0.00189655 [Eh]
  Correction G            -12.168 [kcal/mol]      -50.912 [kJ/mol]      -0.01939148 [Eh]
  Total G, Free enthalpy at  298.15 [K]                               -559.93183533 [Eh]

*** Psi4 exiting successfully. Buy a developer a beer!
