                               Psi4 1.3.2 release

  ==> Input File <==

--------------------------------------------------------------------------
memory 144 GB

molecule {
0 1
C 0.0000000000 0.0000000000 0.0000000000
O 0.0000000000 0.0000000000 1.1626000000
O 0.0000000000 0.0000000000 -1.1626000000
}

set dynamic_level 1
set basis cc-pV(T+d)Z

optimize("wB97X-V")
frequencies("wB97X-V")
--------------------------------------------------------------------------

    Molecular point group: d2h
  Charge       = 0
  Multiplicity = 1
  Basis Set: CC-PV(T+D)Z
    Blend: CC-PV(T+D)Z
  Basis Set: (CC-PV(T+D)Z AUX)
    Blend: CC-PVTZ-JKFIT
  @DF-RKS Final Energy:  -188.59433205290480
    Total Energy =                       -188.5943320529047753
    Molecular point group: d2h
  Basis Set: CC-PV(T+D)Z
    Blend: CC-PV(T+D)Z
  Basis Set: (CC-PV(T+D)Z AUX)
    Blend: CC-PVTZ-JKFIT
  @DF-RKS Final Energy:  -188.59434173211866
    Total Energy =                       -188.5943417321186644
  Basis Set: CC-PV(T+D)Z
    Blend: CC-PV(T+D)Z
  Basis Set: (CC-PV(T+D)Z AUX)
    Blend: CC-PVTZ-JKFIT
  @DF-RKS Final Energy:  -188.59432056998585
    Total Energy =                       -188.5943205699858822
  Basis Set: CC-PV(T+D)Z
    Blend: CC-PV(T+D)Z
  Basis Set: (CC-PV(T+D)Z AUX)
    Blend: CC-PVTZ-JKFIT
  @DF-RKS Final Energy:  -188.59436272840023
    Total Energy =                       -188.5943627284002275
  @DF-RKS Final Energy:  -188.59436262961333
    Total Energy =                       -188.5943626296133289
  @DF-RKS Final Energy:  -188.59436099300055
    Total Energy =                       -188.5943609930005493
  @DF-RKS Final Energy:  -188.59436291115216
    Total Energy =                       -188.5943629111521886
  @DF-RKS Final Energy:  -188.59436198514874
    Total Energy =                       -188.5943619851487369
  @DF-RKS Final Energy:  -188.59436200057004
    Total Energy =                       -188.5943620005700438
  **** Optimization is complete! (in 3 steps) ****
    Final optimized geometry and variables:
  @DF-RKS Final Energy:  -188.59436291115205
    Total Energy =                       -188.5943629111520181
  @DF-RKS Final Energy:  -188.59436198514859
    Total Energy =                       -188.5943619851485948
  @DF-RKS Final Energy:  -188.59436200057004
    Total Energy =                       -188.5943620005700438
  @DF-RKS Final Energy:  -188.59436291115219
    Total Energy =                       -188.5943629111522171
  @DF-RKS Final Energy:  -188.59436198514862
    Total Energy =                       -188.5943619851486517
  Basis Set: CC-PV(T+D)Z
    Blend: CC-PV(T+D)Z
  Basis Set: (CC-PV(T+D)Z AUX)
    Blend: CC-PVTZ-JKFIT
  @DF-RKS Final Energy:  -188.59436200057013
    Total Energy =                       -188.5943620005701291
  Basis Set: CC-PV(T+D)Z
    Blend: CC-PV(T+D)Z
  Basis Set: (CC-PV(T+D)Z AUX)
    Blend: CC-PVTZ-JKFIT
  @DF-RKS Final Energy:  -188.59436009323804
    Total Energy =                       -188.5943600932380377
  Multiplicity = 1
  Basis Set: CC-PV(T+D)Z
    Blend: CC-PV(T+D)Z
  Basis Set: (CC-PV(T+D)Z AUX)
    Blend: CC-PVTZ-JKFIT
  @DF-RKS Final Energy:  -188.59436268997507
    Total Energy =                       -188.5943626899750996
    Molecular point group: c2v

    Geometry (in Angstrom), charge = 0, multiplicity = 1:

       Center              X                  Y                   Z               Mass
    ------------   -----------------  -----------------  -----------------  -----------------
         C           -0.000651343880     0.000000000000     0.000000000000    12.000000000000
         O            0.000244331612     0.000000000000     1.159878339850    15.994914619570
         O            0.000244331612     0.000000000000    -1.159878339850    15.994914619570

  Charge       = 0
  Multiplicity = 1
  Basis Set: CC-PV(T+D)Z
    Blend: CC-PV(T+D)Z
  Basis Set: (CC-PV(T+D)Z AUX)
    Blend: CC-PVTZ-JKFIT

    Orbital Energies [Eh]
    ---------------------

    Doubly Occupied:

       1B2   -19.296488     1A1   -19.296413     2A1   -10.462071
       3A1    -1.296555     2B2    -1.252026     4A1    -0.683065
       1B1    -0.637963     5A1    -0.637963     3B2    -0.635466
       1A2    -0.479166     4B2    -0.479166

  @DF-RKS Final Energy:  -188.59436268997459

   => Energetics <=

    Nuclear Repulsion Energy =             58.3980797743040796
    One-Electron Energy =                -372.8736704340877282
    Two-Electron Energy =                 141.8517209975335334
    DFT Exchange-Correlation Energy =     -16.0622626056541620
    Empirical Dispersion Energy =           0.0000000000000000
    VV10 Nonlocal Energy =                  0.0917695779296406
    Total Energy =                       -188.5943626899745880

  Dipole Moment: [D]
     X:    -0.0024      Y:     0.0000      Z:     0.0000     Total:     0.0024

  Vibration                       6                   7                   8
  Freq [cm^-1]                 683.7847            683.7854           1393.2847
  Irrep                          B2u                 B3u                  Ag
  Reduced mass [u]             12.8774             12.8774             15.9949
  Force const [mDyne/A]         3.5474              3.5475             18.2941

  Vibration                       9
  Freq [cm^-1]                2440.6930
  Irrep                          B1u
  Reduced mass [u]             12.8774
  Force const [mDyne/A]        45.1964

  ==> Thermochemistry Components <==

  Entropy, S
    Electronic S            0.000 [cal/(mol K)]        0.000 [J/(mol K)]       0.00000000 [mEh/K] (multiplicity = 1)
    Translational S        37.270 [cal/(mol K)]      155.938 [J/(mol K)]       0.05939371 [mEh/K] (mol. weight = 43.9898 [u], P = 101325.00 [Pa])
    Rotational S           13.072 [cal/(mol K)]       54.692 [J/(mol K)]       0.02083097 [mEh/K] (symmetry no. = 2)
    Vibrational S           0.670 [cal/(mol K)]        2.805 [J/(mol K)]       0.00106841 [mEh/K]
  Total S                  51.012 [cal/(mol K)]      213.435 [J/(mol K)]       0.08129309 [mEh/K]
  Correction S              0.000 [cal/(mol K)]        0.000 [J/(mol K)]       0.00000000 [mEh/K]

  Constant volume heat capacity, Cv
    Electronic Cv           0.000 [cal/(mol K)]        0.000 [J/(mol K)]       0.00000000 [mEh/K]
    Translational Cv        2.981 [cal/(mol K)]       12.472 [J/(mol K)]       0.00475022 [mEh/K]
    Rotational Cv           1.987 [cal/(mol K)]        8.314 [J/(mol K)]       0.00316681 [mEh/K]
    Vibrational Cv          1.832 [cal/(mol K)]        7.663 [J/(mol K)]       0.00291877 [mEh/K]
  Total Cv                  6.800 [cal/(mol K)]       28.449 [J/(mol K)]       0.01083580 [mEh/K]
  Correction Cv             0.000 [cal/(mol K)]        0.000 [J/(mol K)]       0.00000000 [mEh/K]

  Constant pressure heat capacity, Cp
    Electronic Cp           0.000 [cal/(mol K)]        0.000 [J/(mol K)]       0.00000000 [mEh/K]
    Translational Cp        4.968 [cal/(mol K)]       20.786 [J/(mol K)]       0.00791703 [mEh/K]
    Rotational Cp           1.987 [cal/(mol K)]        8.314 [J/(mol K)]       0.00316681 [mEh/K]
    Vibrational Cp          1.832 [cal/(mol K)]        7.663 [J/(mol K)]       0.00291877 [mEh/K]
  Total Cp                  8.787 [cal/(mol K)]       36.764 [J/(mol K)]       0.01400261 [mEh/K]
  Correction Cp             0.000 [cal/(mol K)]        0.000 [J/(mol K)]       0.00000000 [mEh/K]

  ==> Thermochemistry Energy Analysis <==

  Raw electronic energy, E0
  Total E0, Electronic energy at well bottom at 0 [K]                 -188.59436291 [Eh]

  Zero-point energy, ZPE_vib = Sum_i nu_i / 2
    Electronic ZPE          0.000 [kcal/mol]        0.000 [kJ/mol]       0.00000000 [Eh]
    Translational ZPE       0.000 [kcal/mol]        0.000 [kJ/mol]       0.00000000 [Eh]
    Rotational ZPE          0.000 [kcal/mol]        0.000 [kJ/mol]       0.00000000 [Eh]
    Vibrational ZPE         7.436 [kcal/mol]       31.112 [kJ/mol]       0.01185000 [Eh]        2600.774 [cm^-1]
  Correction ZPE            7.436 [kcal/mol]       31.112 [kJ/mol]       0.01185000 [Eh]        2600.774 [cm^-1]
  Total ZPE, Electronic energy at 0 [K]                               -188.58251291 [Eh]

  Thermal Energy, E (includes ZPE)
    Electronic E            0.000 [kcal/mol]        0.000 [kJ/mol]       0.00000000 [Eh]
    Translational E         0.889 [kcal/mol]        3.718 [kJ/mol]       0.00141628 [Eh]
    Rotational E            0.592 [kcal/mol]        2.479 [kJ/mol]       0.00094418 [Eh]
    Vibrational E           7.591 [kcal/mol]       31.759 [kJ/mol]       0.01209642 [Eh]
  Correction E              9.072 [kcal/mol]       37.957 [kJ/mol]       0.01445688 [Eh]
  Total E, Electronic energy at  298.15 [K]                           -188.57990603 [Eh]

  Enthalpy, H_trans = E_trans + k_B * T
    Electronic H            0.000 [kcal/mol]        0.000 [kJ/mol]       0.00000000 [Eh]
    Translational H         1.481 [kcal/mol]        6.197 [kJ/mol]       0.00236046 [Eh]
    Rotational H            0.592 [kcal/mol]        2.479 [kJ/mol]       0.00094418 [Eh]
    Vibrational H           7.591 [kcal/mol]       31.759 [kJ/mol]       0.01209642 [Eh]
  Correction H              9.664 [kcal/mol]       40.435 [kJ/mol]       0.01540106 [Eh]
  Total H, Enthalpy at  298.15 [K]                                    -188.57896185 [Eh]

  Gibbs free energy, G = H - T * S
    Electronic G            0.000 [kcal/mol]        0.000 [kJ/mol]       0.00000000 [Eh]
    Translational G        -9.631 [kcal/mol]      -40.296 [kJ/mol]      -0.01534777 [Eh]
    Rotational G           -3.305 [kcal/mol]      -13.827 [kJ/mol]      -0.00526657 [Eh]
    Vibrational G           7.391 [kcal/mol]       30.923 [kJ/mol]       0.01177787 [Eh]
  Correction G             -5.545 [kcal/mol]      -23.200 [kJ/mol]      -0.00883647 [Eh]
  Total G, Free enthalpy at  298.15 [K]                               -188.60319938 [Eh]

*** Psi4 exiting successfully. Buy a developer a beer!
