                               Psi4 1.3.2 release

  ==> Input File <==

--------------------------------------------------------------------------
memory 144 GB

molecule {
0 1
C 0.0000000000 0.0000000000 0.0000000000
O 0.0000000000 0.0000000000 1.1314000000
}

set dynamic_level 1
set basis cc-pV(T+d)Z

optimize("wB97X-V")
frequencies("wB97X-V")
--------------------------------------------------------------------------

    Molecular point group: c2v
  Charge       = 0
  Multiplicity = 1
  Basis Set: CC-PV(T+D)Z
    Blend: CC-PV(T+D)Z
  Basis Set: (CC-PV(T+D)Z AUX)
    Blend: CC-PVTZ-JKFIT
  @DF-RKS Final Energy:  -113.31989448856271
    Total Energy =                       -113.3198944885627100
    Molecular point group: c2v
  Basis Set: CC-PV(T+D)Z
    Blend: CC-PV(T+D)Z
  Basis Set: (CC-PV(T+D)Z AUX)
    Blend: CC-PVTZ-JKFIT
  @DF-RKS Final Energy:  -113.31987240518862
    Total Energy =                       -113.3198724051886188
  Basis Set: CC-PV(T+D)Z
    Blend: CC-PV(T+D)Z
  Basis Set: (CC-PV(T+D)Z AUX)
    Blend: CC-PVTZ-JKFIT
  @DF-RKS Final Energy:  -113.31991196930292
    Total Energy =                       -113.3199119693029218
  Basis Set: CC-PV(T+D)Z
    Blend: CC-PV(T+D)Z
  Basis Set: (CC-PV(T+D)Z AUX)
    Blend: CC-PVTZ-JKFIT
  @DF-RKS Final Energy:  -113.31993580136279
    Total Energy =                       -113.3199358013627887
  @DF-RKS Final Energy:  -113.31993068844953
    Total Energy =                       -113.3199306884495314
  @DF-RKS Final Energy:  -113.31993619354908
    Total Energy =                       -113.3199361935490828
  @DF-RKS Final Energy:  -113.31993660572263
    Total Energy =                       -113.3199366057226456
  @DF-RKS Final Energy:  -113.31993427644245
    Total Energy =                       -113.3199342764424529
  @DF-RKS Final Energy:  -113.31993419509840
    Total Energy =                       -113.3199341950983978
  **** Optimization is complete! (in 3 steps) ****
    Final optimized geometry and variables:
  @DF-RKS Final Energy:  -113.31993660572277
    Total Energy =                       -113.3199366057227735
  @DF-RKS Final Energy:  -113.31993427643525
    Total Energy =                       -113.3199342764352480
  Basis Set: CC-PV(T+D)Z
    Blend: CC-PV(T+D)Z
  Basis Set: (CC-PV(T+D)Z AUX)
    Blend: CC-PVTZ-JKFIT
  @DF-RKS Final Energy:  -113.31993419509371
    Total Energy =                       -113.3199341950937082
  Basis Set: CC-PV(T+D)Z
    Blend: CC-PV(T+D)Z
  Basis Set: (CC-PV(T+D)Z AUX)
    Blend: CC-PVTZ-JKFIT
  @DF-RKS Final Energy:  -113.31993660572282
    Total Energy =                       -113.3199366057228019
  Multiplicity = 1
  Basis Set: CC-PV(T+D)Z
    Blend: CC-PV(T+D)Z
  Basis Set: (CC-PV(T+D)Z AUX)
    Blend: CC-PVTZ-JKFIT
  @DF-RKS Final Energy:  -113.31993427643540
    Total Energy =                       -113.3199342764353901
    Molecular point group: c2v

    Geometry (in Angstrom), charge = 0, multiplicity = 1:

       Center              X                  Y                   Z               Mass
    ------------   -----------------  -----------------  -----------------  -----------------
         C            0.000000000000     0.000000000000    -0.643398806668    12.000000000000
         O            0.000000000000     0.000000000000     0.482702525374    15.994914619570

  Charge       = 0
  Multiplicity = 1
  Basis Set: CC-PV(T+D)Z
    Blend: CC-PV(T+D)Z
  Basis Set: (CC-PV(T+D)Z AUX)
    Blend: CC-PVTZ-JKFIT

    Orbital Energies [Eh]
    ---------------------

    Doubly Occupied:

       1A1   -19.321815     2A1   -10.387510     3A1    -1.295811
       4A1    -0.694330     1B2    -0.588890     1B1    -0.588890
       5A1    -0.490496

  @DF-RKS Final Energy:  -113.31993419509374

   => Energetics <=

    Nuclear Repulsion Energy =             22.5561460495756023
    One-Electron Energy =                -198.3984080275756128
    Two-Electron Energy =                  72.3063866651910558
    DFT Exchange-Correlation Energy =      -9.8431891469820165
    Empirical Dispersion Energy =           0.0000000000000000
    VV10 Nonlocal Energy =                  0.0591302646972285
    Total Energy =                       -113.3199341950937367

  Dipole Moment: [D]
     X:     0.0000      Y:     0.0000      Z:     0.1215     Total:     0.1215

  Vibration                       6
  Freq [cm^-1]                2238.3068
  Irrep                           A1
  Reduced mass [u]             13.4388
  Force const [mDyne/A]        39.6687

  ==> Thermochemistry Components <==

  Entropy, S
    Electronic S            0.000 [cal/(mol K)]        0.000 [J/(mol K)]       0.00000000 [mEh/K] (multiplicity = 1)
    Translational S        35.923 [cal/(mol K)]      150.302 [J/(mol K)]       0.05724692 [mEh/K] (mol. weight = 27.9949 [u], P = 101325.00 [Pa])
    Rotational S           11.274 [cal/(mol K)]       47.172 [J/(mol K)]       0.01796681 [mEh/K] (symmetry no. = 1)
    Vibrational S           0.000 [cal/(mol K)]        0.002 [J/(mol K)]       0.00000076 [mEh/K]
  Total S                  47.198 [cal/(mol K)]      197.476 [J/(mol K)]       0.07521449 [mEh/K]
  Correction S              0.000 [cal/(mol K)]        0.000 [J/(mol K)]       0.00000000 [mEh/K]

  Constant volume heat capacity, Cv
    Electronic Cv           0.000 [cal/(mol K)]        0.000 [J/(mol K)]       0.00000000 [mEh/K]
    Translational Cv        2.981 [cal/(mol K)]       12.472 [J/(mol K)]       0.00475022 [mEh/K]
    Rotational Cv           1.987 [cal/(mol K)]        8.314 [J/(mol K)]       0.00316681 [mEh/K]
    Vibrational Cv          0.005 [cal/(mol K)]        0.020 [J/(mol K)]       0.00000753 [mEh/K]
  Total Cv                  4.973 [cal/(mol K)]       20.806 [J/(mol K)]       0.00792455 [mEh/K]
  Correction Cv             0.000 [cal/(mol K)]        0.000 [J/(mol K)]       0.00000000 [mEh/K]

  Constant pressure heat capacity, Cp
    Electronic Cp           0.000 [cal/(mol K)]        0.000 [J/(mol K)]       0.00000000 [mEh/K]
    Translational Cp        4.968 [cal/(mol K)]       20.786 [J/(mol K)]       0.00791703 [mEh/K]
    Rotational Cp           1.987 [cal/(mol K)]        8.314 [J/(mol K)]       0.00316681 [mEh/K]
    Vibrational Cp          0.005 [cal/(mol K)]        0.020 [J/(mol K)]       0.00000753 [mEh/K]
  Total Cp                  6.960 [cal/(mol K)]       29.120 [J/(mol K)]       0.01109136 [mEh/K]
  Correction Cp             0.000 [cal/(mol K)]        0.000 [J/(mol K)]       0.00000000 [mEh/K]

  ==> Thermochemistry Energy Analysis <==

  Raw electronic energy, E0
  Total E0, Electronic energy at well bottom at 0 [K]                 -113.31993661 [Eh]

  Zero-point energy, ZPE_vib = Sum_i nu_i / 2
    Electronic ZPE          0.000 [kcal/mol]        0.000 [kJ/mol]       0.00000000 [Eh]
    Translational ZPE       0.000 [kcal/mol]        0.000 [kJ/mol]       0.00000000 [Eh]
    Rotational ZPE          0.000 [kcal/mol]        0.000 [kJ/mol]       0.00000000 [Eh]
    Vibrational ZPE         3.200 [kcal/mol]       13.388 [kJ/mol]       0.00509924 [Eh]        1119.153 [cm^-1]
  Correction ZPE            3.200 [kcal/mol]       13.388 [kJ/mol]       0.00509924 [Eh]        1119.153 [cm^-1]
  Total ZPE, Electronic energy at 0 [K]                               -113.31483737 [Eh]

  Thermal Energy, E (includes ZPE)
    Electronic E            0.000 [kcal/mol]        0.000 [kJ/mol]       0.00000000 [Eh]
    Translational E         0.889 [kcal/mol]        3.718 [kJ/mol]       0.00141628 [Eh]
    Rotational E            0.592 [kcal/mol]        2.479 [kJ/mol]       0.00094418 [Eh]
    Vibrational E           3.200 [kcal/mol]       13.389 [kJ/mol]       0.00509945 [Eh]
  Correction E              4.681 [kcal/mol]       19.586 [kJ/mol]       0.00745991 [Eh]
  Total E, Electronic energy at  298.15 [K]                           -113.31247670 [Eh]

  Enthalpy, H_trans = E_trans + k_B * T
    Electronic H            0.000 [kcal/mol]        0.000 [kJ/mol]       0.00000000 [Eh]
    Translational H         1.481 [kcal/mol]        6.197 [kJ/mol]       0.00236046 [Eh]
    Rotational H            0.592 [kcal/mol]        2.479 [kJ/mol]       0.00094418 [Eh]
    Vibrational H           3.200 [kcal/mol]       13.389 [kJ/mol]       0.00509945 [Eh]
  Correction H              5.274 [kcal/mol]       22.065 [kJ/mol]       0.00840409 [Eh]
  Total H, Enthalpy at  298.15 [K]                                    -113.31153251 [Eh]

  Gibbs free energy, G = H - T * S
    Electronic G            0.000 [kcal/mol]        0.000 [kJ/mol]       0.00000000 [Eh]
    Translational G        -9.229 [kcal/mol]      -38.615 [kJ/mol]      -0.01470771 [Eh]
    Rotational G           -2.769 [kcal/mol]      -11.585 [kJ/mol]      -0.00441262 [Eh]
    Vibrational G           3.200 [kcal/mol]       13.388 [kJ/mol]       0.00509922 [Eh]
  Correction G             -8.798 [kcal/mol]      -36.812 [kJ/mol]      -0.01402111 [Eh]
  Total G, Free enthalpy at  298.15 [K]                               -113.33395771 [Eh]

*** Psi4 exiting successfully. Buy a developer a beer!
