                               Psi4 1.3.2 release

  ==> Input File <==

--------------------------------------------------------------------------
memory 144 GB

molecule {
0 1
C 0.0000000000 0.0000000000 0.0000000000
S 0.0000000000 0.0000000000 1.5576337400
S 0.0000000000 0.0000000000 -1.5576337400
}

set dynamic_level 1
set basis cc-pV(T+d)Z

optimize("wB97X-V")
frequencies("wB97X-V")
--------------------------------------------------------------------------

    Molecular point group: d2h
  Charge       = 0
  Multiplicity = 1
  Basis Set: CC-PV(T+D)Z
    Blend: CC-PV(T+D)Z
  Basis Set: (CC-PV(T+D)Z AUX)
    Blend: CC-PVTZ-JKFIT
  @DF-RKS Final Energy:  -834.39615133303289
    Total Energy =                       -834.3961513330327762
    Molecular point group: d2h
  Basis Set: CC-PV(T+D)Z
    Blend: CC-PV(T+D)Z
  Basis Set: (CC-PV(T+D)Z AUX)
    Blend: CC-PVTZ-JKFIT
  @DF-RKS Final Energy:  -834.39616489817854
    Total Energy =                       -834.3961648981786539
  Basis Set: CC-PV(T+D)Z
    Blend: CC-PV(T+D)Z
  Basis Set: (CC-PV(T+D)Z AUX)
    Blend: CC-PVTZ-JKFIT
  @DF-RKS Final Energy:  -834.39613732659188
    Total Energy =                       -834.3961373265919974
  Basis Set: CC-PV(T+D)Z
    Blend: CC-PV(T+D)Z
  Basis Set: (CC-PV(T+D)Z AUX)
    Blend: CC-PVTZ-JKFIT
  @DF-RKS Final Energy:  -834.39636256462313
    Total Energy =                       -834.3963625646230184
  @DF-RKS Final Energy:  -834.39636290460055
    Total Energy =                       -834.3963629046005508
  @DF-RKS Final Energy:  -834.39636175882390
    Total Energy =                       -834.3963617588239003
  @DF-RKS Final Energy:  -834.39636291715851
    Total Energy =                       -834.3963629171586263
  @DF-RKS Final Energy:  -834.39636266819275
    Total Energy =                       -834.3963626681927508
  @DF-RKS Final Energy:  -834.39636269982964
    Total Energy =                       -834.3963626998295240
  **** Optimization is complete! (in 3 steps) ****
    Final optimized geometry and variables:
  @DF-RKS Final Energy:  -834.39636291715919
    Total Energy =                       -834.3963629171591947
  @DF-RKS Final Energy:  -834.39636266819321
    Total Energy =                       -834.3963626681930918
  @DF-RKS Final Energy:  -834.39636269982952
    Total Energy =                       -834.3963626998296377
  @DF-RKS Final Energy:  -834.39636291715885
    Total Energy =                       -834.3963629171589673
  @DF-RKS Final Energy:  -834.39636266819321
    Total Energy =                       -834.3963626681930918
  Basis Set: CC-PV(T+D)Z
    Blend: CC-PV(T+D)Z
  Basis Set: (CC-PV(T+D)Z AUX)
    Blend: CC-PVTZ-JKFIT
  @DF-RKS Final Energy:  -834.39636269982907
    Total Energy =                       -834.3963626998291829
  Basis Set: CC-PV(T+D)Z
    Blend: CC-PV(T+D)Z
  Basis Set: (CC-PV(T+D)Z AUX)
    Blend: CC-PVTZ-JKFIT
  @DF-RKS Final Energy:  -834.39636171918971
    Total Energy =                       -834.3963617191897129
  Multiplicity = 1
  Basis Set: CC-PV(T+D)Z
    Blend: CC-PV(T+D)Z
  Basis Set: (CC-PV(T+D)Z AUX)
    Blend: CC-PVTZ-JKFIT
  @DF-RKS Final Energy:  -834.39636283358084
    Total Energy =                       -834.3963628335809517
    Molecular point group: c2v

    Geometry (in Angstrom), charge = 0, multiplicity = 1:

       Center              X                  Y                   Z               Mass
    ------------   -----------------  -----------------  -----------------  -----------------
         C           -0.000700864006     0.000000000000     0.000000000000    12.000000000000
         S            0.000131526794     0.000000000000     1.547558162981    31.972071174400
         S            0.000131526794     0.000000000000    -1.547558162981    31.972071174400

  Charge       = 0
  Multiplicity = 1
  Basis Set: CC-PV(T+D)Z
    Blend: CC-PV(T+D)Z
  Basis Set: (CC-PV(T+D)Z AUX)
    Blend: CC-PVTZ-JKFIT

    Orbital Energies [Eh]
    ---------------------

    Doubly Occupied:

       1B2   -88.917225     1A1   -88.917220     2A1   -10.412350
       2B2    -8.076140     3A1    -8.076117     3B2    -6.031400
       4A1    -6.031400     1A2    -6.027198     4B2    -6.027198
       1B1    -6.027197     5A1    -6.027197     6A1    -0.997474
       5B2    -0.899419     7A1    -0.620946     6B2    -0.537007
       8A1    -0.505032     2B1    -0.505032     2A2    -0.364272
       7B2    -0.364272

  @DF-RKS Final Energy:  -834.39636283392656

   => Energetics <=

    Nuclear Repulsion Energy =            109.4218600424620575
    One-Electron Energy =               -1367.9771294850138474
    Two-Electron Energy =                 466.5010301918853770
    DFT Exchange-Correlation Energy =     -42.4991806625027309
    Empirical Dispersion Energy =           0.0000000000000000
    VV10 Nonlocal Energy =                  0.1570570792427347
    Total Energy =                       -834.3963628339265597

  Dipole Moment: [D]
     X:     0.0005      Y:     0.0000      Z:     0.0000     Total:     0.0005

  Vibration                       6                   7                   8
  Freq [cm^-1]                 419.4645            420.3348            702.0448
  Irrep                          B3u                 B2u                  Ag
  Reduced mass [u]             13.3142             13.3142             31.9721
  Force const [mDyne/A]         1.3802              1.3860              9.2843

  Vibration                       9
  Freq [cm^-1]                1591.3734
  Irrep                          B1u
  Reduced mass [u]             13.3142
  Force const [mDyne/A]        19.8659

  ==> Thermochemistry Components <==

  Entropy, S
    Electronic S            0.000 [cal/(mol K)]        0.000 [J/(mol K)]       0.00000000 [mEh/K] (multiplicity = 1)
    Translational S        38.898 [cal/(mol K)]      162.748 [J/(mol K)]       0.06198752 [mEh/K] (mol. weight = 75.9441 [u], P = 101325.00 [Pa])
    Rotational S           15.594 [cal/(mol K)]       65.245 [J/(mol K)]       0.02485066 [mEh/K] (symmetry no. = 2)
    Vibrational S           2.096 [cal/(mol K)]        8.771 [J/(mol K)]       0.00334061 [mEh/K]
  Total S                  56.588 [cal/(mol K)]      236.764 [J/(mol K)]       0.09017879 [mEh/K]
  Correction S              0.000 [cal/(mol K)]        0.000 [J/(mol K)]       0.00000000 [mEh/K]

  Constant volume heat capacity, Cv
    Electronic Cv           0.000 [cal/(mol K)]        0.000 [J/(mol K)]       0.00000000 [mEh/K]
    Translational Cv        2.981 [cal/(mol K)]       12.472 [J/(mol K)]       0.00475022 [mEh/K]
    Rotational Cv           1.987 [cal/(mol K)]        8.314 [J/(mol K)]       0.00316681 [mEh/K]
    Vibrational Cv          3.734 [cal/(mol K)]       15.621 [J/(mol K)]       0.00594973 [mEh/K]
  Total Cv                  8.702 [cal/(mol K)]       36.407 [J/(mol K)]       0.01386675 [mEh/K]
  Correction Cv             0.000 [cal/(mol K)]        0.000 [J/(mol K)]       0.00000000 [mEh/K]

  Constant pressure heat capacity, Cp
    Electronic Cp           0.000 [cal/(mol K)]        0.000 [J/(mol K)]       0.00000000 [mEh/K]
    Translational Cp        4.968 [cal/(mol K)]       20.786 [J/(mol K)]       0.00791703 [mEh/K]
    Rotational Cp           1.987 [cal/(mol K)]        8.314 [J/(mol K)]       0.00316681 [mEh/K]
    Vibrational Cp          3.734 [cal/(mol K)]       15.621 [J/(mol K)]       0.00594973 [mEh/K]
  Total Cp                 10.689 [cal/(mol K)]       44.722 [J/(mol K)]       0.01703356 [mEh/K]
  Correction Cp             0.000 [cal/(mol K)]        0.000 [J/(mol K)]       0.00000000 [mEh/K]

  ==> Thermochemistry Energy Analysis <==

  Raw electronic energy, E0
  Total E0, Electronic energy at well bottom at 0 [K]                 -834.39636292 [Eh]

  Zero-point energy, ZPE_vib = Sum_i nu_i / 2
    Electronic ZPE          0.000 [kcal/mol]        0.000 [kJ/mol]       0.00000000 [Eh]
    Translational ZPE       0.000 [kcal/mol]        0.000 [kJ/mol]       0.00000000 [Eh]
    Rotational ZPE          0.000 [kcal/mol]        0.000 [kJ/mol]       0.00000000 [Eh]
    Vibrational ZPE         4.479 [kcal/mol]       18.741 [kJ/mol]       0.00713799 [Eh]        1566.609 [cm^-1]
  Correction ZPE            4.479 [kcal/mol]       18.741 [kJ/mol]       0.00713799 [Eh]        1566.609 [cm^-1]
  Total ZPE, Electronic energy at 0 [K]                               -834.38922492 [Eh]

  Thermal Energy, E (includes ZPE)
    Electronic E            0.000 [kcal/mol]        0.000 [kJ/mol]       0.00000000 [Eh]
    Translational E         0.889 [kcal/mol]        3.718 [kJ/mol]       0.00141628 [Eh]
    Rotational E            0.592 [kcal/mol]        2.479 [kJ/mol]       0.00094418 [Eh]
    Vibrational E           4.916 [kcal/mol]       20.569 [kJ/mol]       0.00783418 [Eh]
  Correction E              6.397 [kcal/mol]       26.766 [kJ/mol]       0.01019464 [Eh]
  Total E, Electronic energy at  298.15 [K]                           -834.38616828 [Eh]

  Enthalpy, H_trans = E_trans + k_B * T
    Electronic H            0.000 [kcal/mol]        0.000 [kJ/mol]       0.00000000 [Eh]
    Translational H         1.481 [kcal/mol]        6.197 [kJ/mol]       0.00236046 [Eh]
    Rotational H            0.592 [kcal/mol]        2.479 [kJ/mol]       0.00094418 [Eh]
    Vibrational H           4.916 [kcal/mol]       20.569 [kJ/mol]       0.00783418 [Eh]
  Correction H              6.990 [kcal/mol]       29.245 [kJ/mol]       0.01113882 [Eh]
  Total H, Enthalpy at  298.15 [K]                                    -834.38522409 [Eh]

  Gibbs free energy, G = H - T * S
    Electronic G            0.000 [kcal/mol]        0.000 [kJ/mol]       0.00000000 [Eh]
    Translational G       -10.116 [kcal/mol]      -42.326 [kJ/mol]      -0.01612112 [Eh]
    Rotational G           -4.057 [kcal/mol]      -16.974 [kJ/mol]      -0.00646504 [Eh]
    Vibrational G           4.291 [kcal/mol]       17.954 [kJ/mol]       0.00683817 [Eh]
  Correction G             -9.882 [kcal/mol]      -41.346 [kJ/mol]      -0.01574798 [Eh]
  Total G, Free enthalpy at  298.15 [K]                               -834.41211090 [Eh]

*** Psi4 exiting successfully. Buy a developer a beer!
