                               Psi4 1.3.2 release

  ==> Input File <==

--------------------------------------------------------------------------
memory 144 GB

molecule {
0 1
C 0.0000000000 0.0000000000 0.0000000000
S 0.0000000000 0.0000000000 1.5415329200
}

set dynamic_level 1
set basis cc-pV(T+d)Z

optimize("wB97X-V")
frequencies("wB97X-V")
--------------------------------------------------------------------------

    Molecular point group: c2v
  Charge       = 0
  Multiplicity = 1
  Basis Set: CC-PV(T+D)Z
    Blend: CC-PV(T+D)Z
  Basis Set: (CC-PV(T+D)Z AUX)
    Blend: CC-PVTZ-JKFIT
  @DF-RKS Final Energy:  -436.16670196443152
    Total Energy =                       -436.1667019644315246
    Molecular point group: c2v
  Basis Set: CC-PV(T+D)Z
    Blend: CC-PV(T+D)Z
  Basis Set: (CC-PV(T+D)Z AUX)
    Blend: CC-PVTZ-JKFIT
  @DF-RKS Final Energy:  -436.16666888189172
    Total Energy =                       -436.1666688818917237
  Basis Set: CC-PV(T+D)Z
    Blend: CC-PV(T+D)Z
  Basis Set: (CC-PV(T+D)Z AUX)
    Blend: CC-PVTZ-JKFIT
  @DF-RKS Final Energy:  -436.16673343436179
    Total Energy =                       -436.1667334343617313
  Basis Set: CC-PV(T+D)Z
    Blend: CC-PV(T+D)Z
  Basis Set: (CC-PV(T+D)Z AUX)
    Blend: CC-PVTZ-JKFIT
  @DF-RKS Final Energy:  -436.16701274655026
    Total Energy =                       -436.1670127465503697
  @DF-RKS Final Energy:  -436.16700898176879
    Total Energy =                       -436.1670089817687881
  @DF-RKS Final Energy:  -436.16701475834697
    Total Energy =                       -436.1670147583469657
  @DF-RKS Final Energy:  -436.16701511713046
    Total Energy =                       -436.1670151171304610
  @DF-RKS Final Energy:  -436.16701436762003
    Total Energy =                       -436.1670143676200269
  @DF-RKS Final Energy:  -436.16701409977111
    Total Energy =                       -436.1670140997711087
  **** Optimization is complete! (in 3 steps) ****
    Final optimized geometry and variables:
  @DF-RKS Final Energy:  -436.16701511723886
    Total Energy =                       -436.1670151172388614
  @DF-RKS Final Energy:  -436.16701436766220
    Total Energy =                       -436.1670143676621478
  Basis Set: CC-PV(T+D)Z
    Blend: CC-PV(T+D)Z
  Basis Set: (CC-PV(T+D)Z AUX)
    Blend: CC-PVTZ-JKFIT
  @DF-RKS Final Energy:  -436.16701409967703
    Total Energy =                       -436.1670140996770328
  Basis Set: CC-PV(T+D)Z
    Blend: CC-PV(T+D)Z
  Basis Set: (CC-PV(T+D)Z AUX)
    Blend: CC-PVTZ-JKFIT
  @DF-RKS Final Energy:  -436.16701511723926
    Total Energy =                       -436.1670151172392025
  Multiplicity = 1
  Basis Set: CC-PV(T+D)Z
    Blend: CC-PV(T+D)Z
  Basis Set: (CC-PV(T+D)Z AUX)
    Blend: CC-PVTZ-JKFIT
  @DF-RKS Final Energy:  -436.16701436766232
    Total Energy =                       -436.1670143676623752
    Molecular point group: c2v

    Geometry (in Angstrom), charge = 0, multiplicity = 1:

       Center              X                  Y                   Z               Mass
    ------------   -----------------  -----------------  -----------------  -----------------
         C            0.000000000000     0.000000000000    -1.107698795101    12.000000000000
         S            0.000000000000     0.000000000000     0.415749904618    31.972071174400

  Charge       = 0
  Multiplicity = 1
  Basis Set: CC-PV(T+D)Z
    Blend: CC-PV(T+D)Z
  Basis Set: (CC-PV(T+D)Z AUX)
    Blend: CC-PVTZ-JKFIT

    Orbital Energies [Eh]
    ---------------------

    Doubly Occupied:

       1A1   -88.933074     2A1   -10.374040     3A1    -8.095099
       1B1    -6.047699     1B2    -6.047699     4A1    -6.046575
       5A1    -0.968820     6A1    -0.634985     2B1    -0.457776
       2B2    -0.457776     7A1    -0.418028

  @DF-RKS Final Energy:  -436.16701409967663

   => Energetics <=

    Nuclear Repulsion Energy =             33.3460603128180395
    One-Electron Energy =                -666.3813829533694388
    Two-Electron Energy =                 219.8338963436013671
    DFT Exchange-Correlation Energy =     -23.0576633185517679
    Empirical Dispersion Energy =           0.0000000000000000
    VV10 Nonlocal Energy =                  0.0920755158251812
    Total Energy =                       -436.1670140996765781

  Dipole Moment: [D]
     X:     0.0000      Y:     0.0000      Z:     1.9203     Total:     1.9203

  Vibration                       6
  Freq [cm^-1]                1366.6890
  Irrep                           A1
  Reduced mass [u]             14.4661
  Force const [mDyne/A]        15.9199

  ==> Thermochemistry Components <==

  Entropy, S
    Electronic S            0.000 [cal/(mol K)]        0.000 [J/(mol K)]       0.00000000 [mEh/K] (multiplicity = 1)
    Translational S        37.269 [cal/(mol K)]      155.933 [J/(mol K)]       0.05939180 [mEh/K] (mol. weight = 43.9721 [u], P = 101325.00 [Pa])
    Rotational S           12.953 [cal/(mol K)]       54.197 [J/(mol K)]       0.02064236 [mEh/K] (symmetry no. = 1)
    Vibrational S           0.021 [cal/(mol K)]        0.086 [J/(mol K)]       0.00003292 [mEh/K]
  Total S                  50.243 [cal/(mol K)]      210.216 [J/(mol K)]       0.08006707 [mEh/K]
  Correction S              0.000 [cal/(mol K)]        0.000 [J/(mol K)]       0.00000000 [mEh/K]

  Constant volume heat capacity, Cv
    Electronic Cv           0.000 [cal/(mol K)]        0.000 [J/(mol K)]       0.00000000 [mEh/K]
    Translational Cv        2.981 [cal/(mol K)]       12.472 [J/(mol K)]       0.00475022 [mEh/K]
    Rotational Cv           1.987 [cal/(mol K)]        8.314 [J/(mol K)]       0.00316681 [mEh/K]
    Vibrational Cv          0.118 [cal/(mol K)]        0.496 [J/(mol K)]       0.00018880 [mEh/K]
  Total Cv                  5.086 [cal/(mol K)]       21.282 [J/(mol K)]       0.00810583 [mEh/K]
  Correction Cv             0.000 [cal/(mol K)]        0.000 [J/(mol K)]       0.00000000 [mEh/K]

  Constant pressure heat capacity, Cp
    Electronic Cp           0.000 [cal/(mol K)]        0.000 [J/(mol K)]       0.00000000 [mEh/K]
    Translational Cp        4.968 [cal/(mol K)]       20.786 [J/(mol K)]       0.00791703 [mEh/K]
    Rotational Cp           1.987 [cal/(mol K)]        8.314 [J/(mol K)]       0.00316681 [mEh/K]
    Vibrational Cp          0.118 [cal/(mol K)]        0.496 [J/(mol K)]       0.00018880 [mEh/K]
  Total Cp                  7.074 [cal/(mol K)]       29.596 [J/(mol K)]       0.01127264 [mEh/K]
  Correction Cp             0.000 [cal/(mol K)]        0.000 [J/(mol K)]       0.00000000 [mEh/K]

  ==> Thermochemistry Energy Analysis <==

  Raw electronic energy, E0
  Total E0, Electronic energy at well bottom at 0 [K]                 -436.16701512 [Eh]

  Zero-point energy, ZPE_vib = Sum_i nu_i / 2
    Electronic ZPE          0.000 [kcal/mol]        0.000 [kJ/mol]       0.00000000 [Eh]
    Translational ZPE       0.000 [kcal/mol]        0.000 [kJ/mol]       0.00000000 [Eh]
    Rotational ZPE          0.000 [kcal/mol]        0.000 [kJ/mol]       0.00000000 [Eh]
    Vibrational ZPE         1.954 [kcal/mol]        8.175 [kJ/mol]       0.00311355 [Eh]         683.344 [cm^-1]
  Correction ZPE            1.954 [kcal/mol]        8.175 [kJ/mol]       0.00311355 [Eh]         683.344 [cm^-1]
  Total ZPE, Electronic energy at 0 [K]                               -436.16390157 [Eh]

  Thermal Energy, E (includes ZPE)
    Electronic E            0.000 [kcal/mol]        0.000 [kJ/mol]       0.00000000 [Eh]
    Translational E         0.889 [kcal/mol]        3.718 [kJ/mol]       0.00141628 [Eh]
    Rotational E            0.592 [kcal/mol]        2.479 [kJ/mol]       0.00094418 [Eh]
    Vibrational E           1.959 [kcal/mol]        8.197 [kJ/mol]       0.00312207 [Eh]
  Correction E              3.440 [kcal/mol]       14.394 [kJ/mol]       0.00548253 [Eh]
  Total E, Electronic energy at  298.15 [K]                           -436.16153259 [Eh]

  Enthalpy, H_trans = E_trans + k_B * T
    Electronic H            0.000 [kcal/mol]        0.000 [kJ/mol]       0.00000000 [Eh]
    Translational H         1.481 [kcal/mol]        6.197 [kJ/mol]       0.00236046 [Eh]
    Rotational H            0.592 [kcal/mol]        2.479 [kJ/mol]       0.00094418 [Eh]
    Vibrational H           1.959 [kcal/mol]        8.197 [kJ/mol]       0.00312207 [Eh]
  Correction H              4.033 [kcal/mol]       16.873 [kJ/mol]       0.00642672 [Eh]
  Total H, Enthalpy at  298.15 [K]                                    -436.16058840 [Eh]

  Gibbs free energy, G = H - T * S
    Electronic G            0.000 [kcal/mol]        0.000 [kJ/mol]       0.00000000 [Eh]
    Translational G        -9.631 [kcal/mol]      -40.294 [kJ/mol]      -0.01534720 [Eh]
    Rotational G           -3.270 [kcal/mol]      -13.680 [kJ/mol]      -0.00521033 [Eh]
    Vibrational G           1.953 [kcal/mol]        8.171 [kJ/mol]       0.00311226 [Eh]
  Correction G            -10.947 [kcal/mol]      -45.803 [kJ/mol]      -0.01744528 [Eh]
  Total G, Free enthalpy at  298.15 [K]                               -436.18446040 [Eh]

*** Psi4 exiting successfully. Buy a developer a beer!
