                               Psi4 1.3.2 release

  ==> Input File <==

--------------------------------------------------------------------------
memory 144 GB

molecule {
0 1
F 0.0000000000 0.0000000000 0.0000000000
F 0.0000000000 0.0000000000 1.4129000000
}

set dynamic_level 1
set basis cc-pV(T+d)Z

optimize("wB97X-V")
frequencies("wB97X-V")
--------------------------------------------------------------------------

    Molecular point group: d2h
  Charge       = 0
  Multiplicity = 1
  Basis Set: CC-PV(T+D)Z
    Blend: CC-PV(T+D)Z
  Basis Set: (CC-PV(T+D)Z AUX)
    Blend: CC-PVTZ-JKFIT
  @DF-RKS Final Energy:  -199.51452565458408
    Total Energy =                       -199.5145256545840766
    Molecular point group: d2h
  Basis Set: CC-PV(T+D)Z
    Blend: CC-PV(T+D)Z
  Basis Set: (CC-PV(T+D)Z AUX)
    Blend: CC-PVTZ-JKFIT
  @DF-RKS Final Energy:  -199.51448453195380
    Total Energy =                       -199.5144845319537978
  Basis Set: CC-PV(T+D)Z
    Blend: CC-PV(T+D)Z
  Basis Set: (CC-PV(T+D)Z AUX)
    Blend: CC-PVTZ-JKFIT
  @DF-RKS Final Energy:  -199.51456581764438
    Total Energy =                       -199.5145658176443817
  Basis Set: CC-PV(T+D)Z
    Blend: CC-PV(T+D)Z
  Basis Set: (CC-PV(T+D)Z AUX)
    Blend: CC-PVTZ-JKFIT
  @DF-RKS Final Energy:  -199.51532377172327
    Total Energy =                       -199.5153237717232741
  @DF-RKS Final Energy:  -199.51531982570643
    Total Energy =                       -199.5153198257064275
  @DF-RKS Final Energy:  -199.51532656332890
    Total Energy =                       -199.5153265633289266
  @DF-RKS Final Energy:  -199.51532861395714
    Total Energy =                       -199.5153286139571378
  @DF-RKS Final Energy:  -199.51532837650885
    Total Energy =                       -199.5153283765088474
  @DF-RKS Final Energy:  -199.51532767789601
    Total Energy =                       -199.5153276778960105
  **** Optimization is complete! (in 3 steps) ****
    Final optimized geometry and variables:
  @DF-RKS Final Energy:  -199.51532861395719
    Total Energy =                       -199.5153286139572231
  @DF-RKS Final Energy:  -199.51532837650873
    Total Energy =                       -199.5153283765087622
  Basis Set: CC-PV(T+D)Z
    Blend: CC-PV(T+D)Z
  Basis Set: (CC-PV(T+D)Z AUX)
    Blend: CC-PVTZ-JKFIT
  @DF-RKS Final Energy:  -199.51532767789621
    Total Energy =                       -199.5153276778962095
  Basis Set: CC-PV(T+D)Z
    Blend: CC-PV(T+D)Z
  Basis Set: (CC-PV(T+D)Z AUX)
    Blend: CC-PVTZ-JKFIT
  @DF-RKS Final Energy:  -199.51532861395714
    Total Energy =                       -199.5153286139571662
  Multiplicity = 1
  Basis Set: CC-PV(T+D)Z
    Blend: CC-PV(T+D)Z
  Basis Set: (CC-PV(T+D)Z AUX)
    Blend: CC-PVTZ-JKFIT
  @DF-RKS Final Energy:  -199.51532837650871
    Total Energy =                       -199.5153283765087053
    Molecular point group: d2h

    Geometry (in Angstrom), charge = 0, multiplicity = 1:

       Center              X                  Y                   Z               Mass
    ------------   -----------------  -----------------  -----------------  -----------------
         F            0.000000000000     0.000000000000    -0.689477961160    18.998403162730
         F            0.000000000000     0.000000000000     0.689477961160    18.998403162730

  Charge       = 0
  Multiplicity = 1
  Basis Set: CC-PV(T+D)Z
    Blend: CC-PV(T+D)Z
  Basis Set: (CC-PV(T+D)Z AUX)
    Blend: CC-PVTZ-JKFIT

    Orbital Energies [Eh]
    ---------------------

    Doubly Occupied:

       1Ag   -24.866269     1B1u  -24.866254     2Ag    -1.492444
       2B1u   -1.225778     3Ag    -0.713022     1B3u   -0.660885
       1B2u   -0.660885     1B2g   -0.516546     1B3g   -0.516546

  @DF-RKS Final Energy:  -199.51532767789610

   => Energetics <=

    Nuclear Repulsion Energy =             31.0839189059626051
    One-Electron Energy =                -340.0208112602284132
    Two-Electron Energy =                 124.3680084896505491
    DFT Exchange-Correlation Energy =     -15.0234841425866481
    Empirical Dispersion Energy =           0.0000000000000000
    VV10 Nonlocal Energy =                  0.0770403293058214
    Total Energy =                       -199.5153276778960958

  Dipole Moment: [D]
     X:     0.0000      Y:     0.0000      Z:     0.0000     Total:     0.0000

  Vibration                       6
  Freq [cm^-1]                1113.7240
  Irrep                           Ag
  Reduced mass [u]             18.9984
  Force const [mDyne/A]        13.8843

  ==> Thermochemistry Components <==

  Entropy, S
    Electronic S            0.000 [cal/(mol K)]        0.000 [J/(mol K)]       0.00000000 [mEh/K] (multiplicity = 1)
    Translational S        36.834 [cal/(mol K)]      154.112 [J/(mol K)]       0.05869802 [mEh/K] (mol. weight = 37.9968 [u], P = 101325.00 [Pa])
    Rotational S           11.349 [cal/(mol K)]       47.484 [J/(mol K)]       0.01808552 [mEh/K] (symmetry no. = 2)
    Vibrational S           0.059 [cal/(mol K)]        0.247 [J/(mol K)]       0.00009393 [mEh/K]
  Total S                  48.241 [cal/(mol K)]      201.842 [J/(mol K)]       0.07687747 [mEh/K]
  Correction S              0.000 [cal/(mol K)]        0.000 [J/(mol K)]       0.00000000 [mEh/K]

  Constant volume heat capacity, Cv
    Electronic Cv           0.000 [cal/(mol K)]        0.000 [J/(mol K)]       0.00000000 [mEh/K]
    Translational Cv        2.981 [cal/(mol K)]       12.472 [J/(mol K)]       0.00475022 [mEh/K]
    Rotational Cv           1.987 [cal/(mol K)]        8.314 [J/(mol K)]       0.00316681 [mEh/K]
    Vibrational Cv          0.268 [cal/(mol K)]        1.123 [J/(mol K)]       0.00042778 [mEh/K]
  Total Cv                  5.236 [cal/(mol K)]       21.909 [J/(mol K)]       0.00834481 [mEh/K]
  Correction Cv             0.000 [cal/(mol K)]        0.000 [J/(mol K)]       0.00000000 [mEh/K]

  Constant pressure heat capacity, Cp
    Electronic Cp           0.000 [cal/(mol K)]        0.000 [J/(mol K)]       0.00000000 [mEh/K]
    Translational Cp        4.968 [cal/(mol K)]       20.786 [J/(mol K)]       0.00791703 [mEh/K]
    Rotational Cp           1.987 [cal/(mol K)]        8.314 [J/(mol K)]       0.00316681 [mEh/K]
    Vibrational Cp          0.268 [cal/(mol K)]        1.123 [J/(mol K)]       0.00042778 [mEh/K]
  Total Cp                  7.224 [cal/(mol K)]       30.224 [J/(mol K)]       0.01151162 [mEh/K]
  Correction Cp             0.000 [cal/(mol K)]        0.000 [J/(mol K)]       0.00000000 [mEh/K]

  ==> Thermochemistry Energy Analysis <==

  Raw electronic energy, E0
  Total E0, Electronic energy at well bottom at 0 [K]                 -199.51532861 [Eh]

  Zero-point energy, ZPE_vib = Sum_i nu_i / 2
    Electronic ZPE          0.000 [kcal/mol]        0.000 [kJ/mol]       0.00000000 [Eh]
    Translational ZPE       0.000 [kcal/mol]        0.000 [kJ/mol]       0.00000000 [Eh]
    Rotational ZPE          0.000 [kcal/mol]        0.000 [kJ/mol]       0.00000000 [Eh]
    Vibrational ZPE         1.592 [kcal/mol]        6.662 [kJ/mol]       0.00253725 [Eh]         556.862 [cm^-1]
  Correction ZPE            1.592 [kcal/mol]        6.662 [kJ/mol]       0.00253725 [Eh]         556.862 [cm^-1]
  Total ZPE, Electronic energy at 0 [K]                               -199.51279136 [Eh]

  Thermal Energy, E (includes ZPE)
    Electronic E            0.000 [kcal/mol]        0.000 [kJ/mol]       0.00000000 [Eh]
    Translational E         0.889 [kcal/mol]        3.718 [kJ/mol]       0.00141628 [Eh]
    Rotational E            0.592 [kcal/mol]        2.479 [kJ/mol]       0.00094418 [Eh]
    Vibrational E           1.607 [kcal/mol]        6.724 [kJ/mol]       0.00256087 [Eh]
  Correction E              3.088 [kcal/mol]       12.921 [kJ/mol]       0.00492133 [Eh]
  Total E, Electronic energy at  298.15 [K]                           -199.51040728 [Eh]

  Enthalpy, H_trans = E_trans + k_B * T
    Electronic H            0.000 [kcal/mol]        0.000 [kJ/mol]       0.00000000 [Eh]
    Translational H         1.481 [kcal/mol]        6.197 [kJ/mol]       0.00236046 [Eh]
    Rotational H            0.592 [kcal/mol]        2.479 [kJ/mol]       0.00094418 [Eh]
    Vibrational H           1.607 [kcal/mol]        6.724 [kJ/mol]       0.00256087 [Eh]
  Correction H              3.681 [kcal/mol]       15.400 [kJ/mol]       0.00586552 [Eh]
  Total H, Enthalpy at  298.15 [K]                                    -199.50946310 [Eh]

  Gibbs free energy, G = H - T * S
    Electronic G            0.000 [kcal/mol]        0.000 [kJ/mol]       0.00000000 [Eh]
    Translational G        -9.501 [kcal/mol]      -39.751 [kJ/mol]      -0.01514035 [Eh]
    Rotational G           -2.791 [kcal/mol]      -11.678 [kJ/mol]      -0.00444801 [Eh]
    Vibrational G           1.589 [kcal/mol]        6.650 [kJ/mol]       0.00253287 [Eh]
  Correction G            -10.702 [kcal/mol]      -44.779 [kJ/mol]      -0.01705550 [Eh]
  Total G, Free enthalpy at  298.15 [K]                               -199.53238411 [Eh]

*** Psi4 exiting successfully. Buy a developer a beer!
