                               Psi4 1.3.2 release

  ==> Input File <==

--------------------------------------------------------------------------
memory 144 GB

molecule {
0 1
O 0.0000000000 0.0000000000 0.0000000000
C 0.0000000000 0.0000000000 1.2066000000
H 0.9369544103 0.0000000000 1.7870836544
H -0.9369544103 0.0000000000 1.7870836544
}

set dynamic_level 1
set basis cc-pV(T+d)Z

optimize("wB97X-V")
frequencies("wB97X-V")
--------------------------------------------------------------------------

    Molecular point group: c2v
  Charge       = 0
  Multiplicity = 1
  Basis Set: CC-PV(T+D)Z
    Blend: CC-PV(T+D)Z
  Basis Set: (CC-PV(T+D)Z AUX)
    Blend: CC-PVTZ-JKFIT
  @DF-RKS Final Energy:  -114.50471128873149
    Total Energy =                       -114.5047112887314711
    Molecular point group: c2v
  Basis Set: CC-PV(T+D)Z
    Blend: CC-PV(T+D)Z
  Basis Set: (CC-PV(T+D)Z AUX)
    Blend: CC-PVTZ-JKFIT
  @DF-RKS Final Energy:  -114.50468991108508
    Total Energy =                       -114.5046899110850944
  Basis Set: CC-PV(T+D)Z
    Blend: CC-PV(T+D)Z
  Basis Set: (CC-PV(T+D)Z AUX)
    Blend: CC-PVTZ-JKFIT
  @DF-RKS Final Energy:  -114.50472973118410
    Total Energy =                       -114.5047297311841135
  Basis Set: CC-PV(T+D)Z
    Blend: CC-PV(T+D)Z
  Basis Set: (CC-PV(T+D)Z AUX)
    Blend: CC-PVTZ-JKFIT
  @DF-RKS Final Energy:  -114.50472586412016
    Total Energy =                       -114.5047258641201466
  @DF-RKS Final Energy:  -114.50469268646891
    Total Energy =                       -114.5046926864689141
  @DF-RKS Final Energy:  -114.50469275794811
    Total Energy =                       -114.5046927579481064
  @DF-RKS Final Energy:  -114.50472310563079
    Total Energy =                       -114.5047231056307879
  @DF-RKS Final Energy:  -114.50480365724232
    Total Energy =                       -114.5048036572423342
  @DF-RKS Final Energy:  -114.50479865747673
    Total Energy =                       -114.5047986574767265
  @DF-RKS Final Energy:  -114.50480561668033
    Total Energy =                       -114.5048056166803292
  @DF-RKS Final Energy:  -114.50480722707495
    Total Energy =                       -114.5048072270749344
  @DF-RKS Final Energy:  -114.50479609290714
    Total Energy =                       -114.5047960929071422
  @DF-RKS Final Energy:  -114.50479889168879
    Total Energy =                       -114.5047988916887931
  @DF-RKS Final Energy:  -114.50480184968811
    Total Energy =                       -114.5048018496881070
  @DF-RKS Final Energy:  -114.50480921861684
    Total Energy =                       -114.5048092186168418
  @DF-RKS Final Energy:  -114.50480778236476
    Total Energy =                       -114.5048077823647645
  @DF-RKS Final Energy:  -114.50480758971801
    Total Energy =                       -114.5048075897180127
  @DF-RKS Final Energy:  -114.50480788149589
    Total Energy =                       -114.5048078814958927
  @DF-RKS Final Energy:  -114.50480656066868
    Total Energy =                       -114.5048065606686833
  @DF-RKS Final Energy:  -114.50480628243102
    Total Energy =                       -114.5048062824310193
  **** Optimization is complete! (in 3 steps) ****
    Final optimized geometry and variables:
  @DF-RKS Final Energy:  -114.50480628243120
    Total Energy =                       -114.5048062824312041
  @DF-RKS Final Energy:  -114.50480561852790
    Total Energy =                       -114.5048056185278966
  @DF-RKS Final Energy:  -114.50480921861690
    Total Energy =                       -114.5048092186168986
  @DF-RKS Final Energy:  -114.50480778236481
    Total Energy =                       -114.5048077823648072
  @DF-RKS Final Energy:  -114.50480758971800
    Total Energy =                       -114.5048075897179984
  @DF-RKS Final Energy:  -114.50480788149615
    Total Energy =                       -114.5048078814961485
  @DF-RKS Final Energy:  -114.50480656066881
    Total Energy =                       -114.5048065606688112
  @DF-RKS Final Energy:  -114.50480628243108
    Total Energy =                       -114.5048062824310762
  @DF-RKS Final Energy:  -114.50480561852802
    Total Energy =                       -114.5048056185280245
  @DF-RKS Final Energy:  -114.50480525974474
    Total Energy =                       -114.5048052597447423
  @DF-RKS Final Energy:  -114.50480677130264
    Total Energy =                       -114.5048067713026398
  @DF-RKS Final Energy:  -114.50480421027758
    Total Energy =                       -114.5048042102775838
  @DF-RKS Final Energy:  -114.50480506457299
    Total Energy =                       -114.5048050645729916
  @DF-RKS Final Energy:  -114.50480549037995
    Total Energy =                       -114.5048054903799652
  @DF-RKS Final Energy:  -114.50480748914184
    Total Energy =                       -114.5048074891418395
  @DF-RKS Final Energy:  -114.50480845114018
    Total Energy =                       -114.5048084511401782
  Basis Set: CC-PV(T+D)Z
    Blend: CC-PV(T+D)Z
  Basis Set: (CC-PV(T+D)Z AUX)
    Blend: CC-PVTZ-JKFIT
  @DF-RKS Final Energy:  -114.50480499401425
    Total Energy =                       -114.5048049940142363
  Basis Set: CC-PV(T+D)Z
    Blend: CC-PV(T+D)Z
  Basis Set: (CC-PV(T+D)Z AUX)
    Blend: CC-PVTZ-JKFIT
  @DF-RKS Final Energy:  -114.50480427517698
    Total Energy =                       -114.5048042751769799
  Multiplicity = 1
  Basis Set: CC-PV(T+D)Z
    Blend: CC-PV(T+D)Z
  Basis Set: (CC-PV(T+D)Z AUX)
    Blend: CC-PVTZ-JKFIT
  @DF-RKS Final Energy:  -114.50480427515740
    Total Energy =                       -114.5048042751573973
    Molecular point group: cs

    Geometry (in Angstrom), charge = 0, multiplicity = 1:

       Center              X                  Y                   Z               Mass
    ------------   -----------------  -----------------  -----------------  -----------------
         O            0.000000000000    -0.000096792633    -0.599546007112    15.994914619570
         C            0.000000000000     0.000393400953     0.600027780654    12.000000000000
         H            0.939939099759    -0.001573994209     1.185401111309     1.007825032230
         H           -0.939939099759    -0.001573994209     1.185401111309     1.007825032230

  Charge       = 0
  Multiplicity = 1
  Basis Set: CC-PV(T+D)Z
    Blend: CC-PV(T+D)Z
  Basis Set: (CC-PV(T+D)Z AUX)
    Blend: CC-PVTZ-JKFIT

    Orbital Energies [Eh]
    ---------------------

    Doubly Occupied:

       1Ap   -19.232110     2Ap   -10.370166     3Ap    -1.194778
       4Ap    -0.759731     1App   -0.614250     5Ap    -0.565728
       6Ap    -0.512515     2App   -0.376127

  @DF-RKS Final Energy:  -114.50480852268309

   => Energetics <=

    Nuclear Repulsion Energy =             31.3878980869600639
    One-Electron Energy =                -217.6753935156397119
    Two-Electron Energy =                  81.9993881116245973
    DFT Exchange-Correlation Energy =     -10.2832196650515115
    Empirical Dispersion Energy =           0.0000000000000000
    VV10 Nonlocal Energy =                  0.0665184594234778
    Total Energy =                       -114.5048085226830921

  Dipole Moment: [D]
     X:     0.0000      Y:    -0.0008      Z:     2.3495     Total:     2.3495

  Vibration                       7                   8                   9
  Freq [cm^-1]                1212.9230           1273.6013           1538.9123
  Irrep                           B2                  B1                  A1
  Reduced mass [u]              1.3676              1.3440              1.0969
  Force const [mDyne/A]         1.1854              1.2844              1.5305

  Vibration                       10                  11                  12
  Freq [cm^-1]                1854.2774           2926.5484           2988.4844
  Irrep                           A1                  A1                  B1
  Reduced mass [u]              7.7833              1.0450              1.1208
  Force const [mDyne/A]        15.7674              5.2735              5.8976

  ==> Thermochemistry Components <==

  Entropy, S
    Electronic S            0.000 [cal/(mol K)]        0.000 [J/(mol K)]       0.00000000 [mEh/K] (multiplicity = 1)
    Translational S        36.130 [cal/(mol K)]      151.169 [J/(mol K)]       0.05757719 [mEh/K] (mol. weight = 30.0106 [u], P = 101325.00 [Pa])
    Rotational S           16.004 [cal/(mol K)]       66.959 [J/(mol K)]       0.02550325 [mEh/K] (symmetry no. = 2)
    Vibrational S           0.082 [cal/(mol K)]        0.344 [J/(mol K)]       0.00013109 [mEh/K]
  Total S                  52.216 [cal/(mol K)]      218.472 [J/(mol K)]       0.08321153 [mEh/K]
  Correction S              0.000 [cal/(mol K)]        0.000 [J/(mol K)]       0.00000000 [mEh/K]

  Constant volume heat capacity, Cv
    Electronic Cv           0.000 [cal/(mol K)]        0.000 [J/(mol K)]       0.00000000 [mEh/K]
    Translational Cv        2.981 [cal/(mol K)]       12.472 [J/(mol K)]       0.00475022 [mEh/K]
    Rotational Cv           2.981 [cal/(mol K)]       12.472 [J/(mol K)]       0.00475022 [mEh/K]
    Vibrational Cv          0.445 [cal/(mol K)]        1.860 [J/(mol K)]       0.00070849 [mEh/K]
  Total Cv                  6.406 [cal/(mol K)]       26.804 [J/(mol K)]       0.01020892 [mEh/K]
  Correction Cv             0.000 [cal/(mol K)]        0.000 [J/(mol K)]       0.00000000 [mEh/K]

  Constant pressure heat capacity, Cp
    Electronic Cp           0.000 [cal/(mol K)]        0.000 [J/(mol K)]       0.00000000 [mEh/K]
    Translational Cp        4.968 [cal/(mol K)]       20.786 [J/(mol K)]       0.00791703 [mEh/K]
    Rotational Cp           2.981 [cal/(mol K)]       12.472 [J/(mol K)]       0.00475022 [mEh/K]
    Vibrational Cp          0.445 [cal/(mol K)]        1.860 [J/(mol K)]       0.00070849 [mEh/K]
  Total Cp                  8.393 [cal/(mol K)]       35.118 [J/(mol K)]       0.01337573 [mEh/K]
  Correction Cp             0.000 [cal/(mol K)]        0.000 [J/(mol K)]       0.00000000 [mEh/K]

  ==> Thermochemistry Energy Analysis <==

  Raw electronic energy, E0
  Total E0, Electronic energy at well bottom at 0 [K]                 -114.50480922 [Eh]

  Zero-point energy, ZPE_vib = Sum_i nu_i / 2
    Electronic ZPE          0.000 [kcal/mol]        0.000 [kJ/mol]       0.00000000 [Eh]
    Translational ZPE       0.000 [kcal/mol]        0.000 [kJ/mol]       0.00000000 [Eh]
    Rotational ZPE          0.000 [kcal/mol]        0.000 [kJ/mol]       0.00000000 [Eh]
    Vibrational ZPE        16.861 [kcal/mol]       70.548 [kJ/mol]       0.02687041 [Eh]        5897.373 [cm^-1]
  Correction ZPE           16.861 [kcal/mol]       70.548 [kJ/mol]       0.02687041 [Eh]        5897.373 [cm^-1]
  Total ZPE, Electronic energy at 0 [K]                               -114.47793881 [Eh]

  Thermal Energy, E (includes ZPE)
    Electronic E            0.000 [kcal/mol]        0.000 [kJ/mol]       0.00000000 [Eh]
    Translational E         0.889 [kcal/mol]        3.718 [kJ/mol]       0.00141628 [Eh]
    Rotational E            0.889 [kcal/mol]        3.718 [kJ/mol]       0.00141628 [Eh]
    Vibrational E          16.883 [kcal/mol]       70.637 [kJ/mol]       0.02690407 [Eh]
  Correction E             18.660 [kcal/mol]       78.073 [kJ/mol]       0.02973662 [Eh]
  Total E, Electronic energy at  298.15 [K]                           -114.47507259 [Eh]

  Enthalpy, H_trans = E_trans + k_B * T
    Electronic H            0.000 [kcal/mol]        0.000 [kJ/mol]       0.00000000 [Eh]
    Translational H         1.481 [kcal/mol]        6.197 [kJ/mol]       0.00236046 [Eh]
    Rotational H            0.889 [kcal/mol]        3.718 [kJ/mol]       0.00141628 [Eh]
    Vibrational H          16.883 [kcal/mol]       70.637 [kJ/mol]       0.02690407 [Eh]
  Correction H             19.252 [kcal/mol]       80.552 [kJ/mol]       0.03068081 [Eh]
  Total H, Enthalpy at  298.15 [K]                                    -114.47412841 [Eh]

  Gibbs free energy, G = H - T * S
    Electronic G            0.000 [kcal/mol]        0.000 [kJ/mol]       0.00000000 [Eh]
    Translational G        -9.291 [kcal/mol]      -38.874 [kJ/mol]      -0.01480618 [Eh]
    Rotational G           -3.883 [kcal/mol]      -16.245 [kJ/mol]      -0.00618752 [Eh]
    Vibrational G          16.858 [kcal/mol]       70.534 [kJ/mol]       0.02686498 [Eh]
  Correction G              3.684 [kcal/mol]       15.415 [kJ/mol]       0.00587129 [Eh]
  Total G, Free enthalpy at  298.15 [K]                               -114.49893793 [Eh]

*** Psi4 exiting successfully. Buy a developer a beer!
