                               Psi4 1.3.2 release

  ==> Input File <==

--------------------------------------------------------------------------
memory 144 GB

molecule {
0 1
S 0.0000000000 0.0000000000 0.0000000000
C 0.0000000000 0.0000000000 1.2066000000
H 0.9369544103 0.0000000000 1.7870836544
H -0.9369544103 0.0000000000 1.7870836544
}

set dynamic_level 1
set basis cc-pV(T+d)Z

optimize("wB97X-V")
frequencies("wB97X-V")
--------------------------------------------------------------------------

    Molecular point group: c2v
  Charge       = 0
  Multiplicity = 1
  Basis Set: CC-PV(T+D)Z
    Blend: CC-PV(T+D)Z
  Basis Set: (CC-PV(T+D)Z AUX)
    Blend: CC-PVTZ-JKFIT
  @DF-RKS Final Energy:  -437.14288317101187
    Total Energy =                       -437.1428831710118743
    Molecular point group: c2v
  Basis Set: CC-PV(T+D)Z
    Blend: CC-PV(T+D)Z
  Basis Set: (CC-PV(T+D)Z AUX)
    Blend: CC-PVTZ-JKFIT
  @DF-RKS Final Energy:  -437.14455389584657
    Total Energy =                       -437.1445538958465136
  Basis Set: CC-PV(T+D)Z
    Blend: CC-PV(T+D)Z
  Basis Set: (CC-PV(T+D)Z AUX)
    Blend: CC-PVTZ-JKFIT
  @DF-RKS Final Energy:  -437.14120457918671
    Total Energy =                       -437.1412045791867627
  Basis Set: CC-PV(T+D)Z
    Blend: CC-PV(T+D)Z
  Basis Set: (CC-PV(T+D)Z AUX)
    Blend: CC-PVTZ-JKFIT
  @DF-RKS Final Energy:  -437.14247946673066
    Total Energy =                       -437.1424794667306060
  @DF-RKS Final Energy:  -437.14328211145920
    Total Energy =                       -437.1432821114592571
  @DF-RKS Final Energy:  -437.14292514867924
    Total Energy =                       -437.1429251486791827
  @DF-RKS Final Energy:  -437.14283504778547
    Total Energy =                       -437.1428350477854110
  @DF-RKS Final Energy:  -437.32515137278392
    Total Energy =                       -437.3251513727839210
  @DF-RKS Final Energy:  -437.32590510046930
    Total Energy =                       -437.3259051004693561
  @DF-RKS Final Energy:  -437.32439334930297
    Total Energy =                       -437.3243933493029090
  @DF-RKS Final Energy:  -437.32492329216495
    Total Energy =                       -437.3249232921648968
  @DF-RKS Final Energy:  -437.32537501127109
    Total Energy =                       -437.3253750112710918
  @DF-RKS Final Energy:  -437.32519018394828
    Total Energy =                       -437.3251901839482798
  @DF-RKS Final Energy:  -437.32510638211789
    Total Energy =                       -437.3251063821178946
  @DF-RKS Final Energy:  -437.39037423638888
    Total Energy =                       -437.3903742363888796
  @DF-RKS Final Energy:  -437.39071103946713
    Total Energy =                       -437.3907110394670781
  @DF-RKS Final Energy:  -437.39003478986876
    Total Energy =                       -437.3900347898687642
  @DF-RKS Final Energy:  -437.39025428418546
    Total Energy =                       -437.3902542841855166
  @DF-RKS Final Energy:  -437.39048982157493
    Total Energy =                       -437.3904898215749313
  @DF-RKS Final Energy:  -437.39038122388814
    Total Energy =                       -437.3903812238881414
  **** Optimization is complete! (in 9 steps) ****
    Final optimized geometry and variables:
  @DF-RKS Final Energy:  -437.41767197226540
    Total Energy =                       -437.4176719722653957
  @DF-RKS Final Energy:  -437.41767195616865
    Total Energy =                       -437.4176719561686468
  @DF-RKS Final Energy:  -437.41767551522531
    Total Energy =                       -437.4176755152253122
  @DF-RKS Final Energy:  -437.41767491732861
    Total Energy =                       -437.4176749173286112
  @DF-RKS Final Energy:  -437.41767486733193
    Total Energy =                       -437.4176748673319253
  @DF-RKS Final Energy:  -437.41767350017875
    Total Energy =                       -437.4176735001787506
  @DF-RKS Final Energy:  -437.41767343284232
    Total Energy =                       -437.4176734328422640
  @DF-RKS Final Energy:  -437.41767197226545
    Total Energy =                       -437.4176719722654525
  @DF-RKS Final Energy:  -437.41767195616870
    Total Energy =                       -437.4176719561686468
  @DF-RKS Final Energy:  -437.41767295038079
    Total Energy =                       -437.4176729503807906
  @DF-RKS Final Energy:  -437.41767306742486
    Total Energy =                       -437.4176730674248006
  @DF-RKS Final Energy:  -437.41767128529085
    Total Energy =                       -437.4176712852907940
  @DF-RKS Final Energy:  -437.41767135069057
    Total Energy =                       -437.4176713506905685
  @DF-RKS Final Energy:  -437.41767298911486
    Total Energy =                       -437.4176729891148057
  @DF-RKS Final Energy:  -437.41767308999005
    Total Energy =                       -437.4176730899900463
  @DF-RKS Final Energy:  -437.41767503060896
    Total Energy =                       -437.4176750306089048
  Basis Set: CC-PV(T+D)Z
    Blend: CC-PV(T+D)Z
  Basis Set: (CC-PV(T+D)Z AUX)
    Blend: CC-PVTZ-JKFIT
  @DF-RKS Final Energy:  -437.41767072971822
    Total Energy =                       -437.4176707297181679
  Basis Set: CC-PV(T+D)Z
    Blend: CC-PV(T+D)Z
  Basis Set: (CC-PV(T+D)Z AUX)
    Blend: CC-PVTZ-JKFIT
  @DF-RKS Final Energy:  -437.41767027982928
    Total Energy =                       -437.4176702798292808
  Multiplicity = 1
  Basis Set: CC-PV(T+D)Z
    Blend: CC-PV(T+D)Z
  Basis Set: (CC-PV(T+D)Z AUX)
    Blend: CC-PVTZ-JKFIT
  @DF-RKS Final Energy:  -437.41767028004057
    Total Energy =                       -437.4176702800405110
    Molecular point group: cs

    Geometry (in Angstrom), charge = 0, multiplicity = 1:

       Center              X                  Y                   Z               Mass
    ------------   -----------------  -----------------  -----------------  -----------------
         S            0.000000000000    -0.000037028942    -0.512242307135    31.972071174400
         C            0.000000000000     0.000371133415     1.085322913822    12.000000000000
         H            0.923497588474    -0.001622161047     1.663767235958     1.007825032230
         H           -0.923497588474    -0.001622161047     1.663767235958     1.007825032230

  Charge       = 0
  Multiplicity = 1
  Basis Set: CC-PV(T+D)Z
    Blend: CC-PV(T+D)Z
  Basis Set: (CC-PV(T+D)Z AUX)
    Blend: CC-PVTZ-JKFIT

    Orbital Energies [Eh]
    ---------------------

    Doubly Occupied:

       1Ap   -88.885597     2Ap   -10.346452     3Ap    -8.043805
       4Ap    -6.000834     5Ap    -5.998078     1App   -5.990069
       6Ap    -0.934396     7Ap    -0.722954     2App   -0.579828
       8Ap    -0.502367     9Ap    -0.422803     3App   -0.332767

  @DF-RKS Final Energy:  -437.41767499076764

   => Energetics <=

    Nuclear Repulsion Energy =             45.0764737471727628
    One-Electron Energy =                -691.5384313055016037
    Two-Electron Energy =                 232.4540067416829174
    DFT Exchange-Correlation Energy =     -23.5089872273675766
    Empirical Dispersion Energy =           0.0000000000000000
    VV10 Nonlocal Energy =                  0.0992630532459272
    Total Energy =                       -437.4176749907676367

  Dipole Moment: [D]
     X:     0.0000      Y:    -0.0026      Z:     1.7781     Total:     1.7781

  Vibration                       7                   8                   9
  Freq [cm^-1]                1012.0843           1052.9421           1138.5365
  Irrep                           B1                  B2                  A1
  Reduced mass [u]              1.2084              1.2960              4.1929
  Force const [mDyne/A]         0.7293              0.8466              3.2022

  Vibration                       10                  11                  12
  Freq [cm^-1]                1507.8915           3095.8710           3180.6542
  Irrep                           A1                  A1                  B1
  Reduced mass [u]              1.2158              1.0514              1.1193
  Force const [mDyne/A]         1.6288              5.9372              6.6715

  ==> Thermochemistry Components <==

  Entropy, S
    Electronic S            0.000 [cal/(mol K)]        0.000 [J/(mol K)]       0.00000000 [mEh/K] (multiplicity = 1)
    Translational S        37.403 [cal/(mol K)]      156.492 [J/(mol K)]       0.05960470 [mEh/K] (mol. weight = 45.9877 [u], P = 101325.00 [Pa])
    Rotational S           17.446 [cal/(mol K)]       72.994 [J/(mol K)]       0.02780204 [mEh/K] (symmetry no. = 2)
    Vibrational S           0.229 [cal/(mol K)]        0.959 [J/(mol K)]       0.00036533 [mEh/K]
  Total S                  55.078 [cal/(mol K)]      230.446 [J/(mol K)]       0.08777207 [mEh/K]
  Correction S              0.000 [cal/(mol K)]        0.000 [J/(mol K)]       0.00000000 [mEh/K]

  Constant volume heat capacity, Cv
    Electronic Cv           0.000 [cal/(mol K)]        0.000 [J/(mol K)]       0.00000000 [mEh/K]
    Translational Cv        2.981 [cal/(mol K)]       12.472 [J/(mol K)]       0.00475022 [mEh/K]
    Rotational Cv           2.981 [cal/(mol K)]       12.472 [J/(mol K)]       0.00475022 [mEh/K]
    Vibrational Cv          1.009 [cal/(mol K)]        4.220 [J/(mol K)]       0.00160736 [mEh/K]
  Total Cv                  6.970 [cal/(mol K)]       29.163 [J/(mol K)]       0.01110779 [mEh/K]
  Correction Cv             0.000 [cal/(mol K)]        0.000 [J/(mol K)]       0.00000000 [mEh/K]

  Constant pressure heat capacity, Cp
    Electronic Cp           0.000 [cal/(mol K)]        0.000 [J/(mol K)]       0.00000000 [mEh/K]
    Translational Cp        4.968 [cal/(mol K)]       20.786 [J/(mol K)]       0.00791703 [mEh/K]
    Rotational Cp           2.981 [cal/(mol K)]       12.472 [J/(mol K)]       0.00475022 [mEh/K]
    Vibrational Cp          1.009 [cal/(mol K)]        4.220 [J/(mol K)]       0.00160736 [mEh/K]
  Total Cp                  8.957 [cal/(mol K)]       37.478 [J/(mol K)]       0.01427460 [mEh/K]
  Correction Cp             0.000 [cal/(mol K)]        0.000 [J/(mol K)]       0.00000000 [mEh/K]

  ==> Thermochemistry Energy Analysis <==

  Raw electronic energy, E0
  Total E0, Electronic energy at well bottom at 0 [K]                 -437.41767552 [Eh]

  Zero-point energy, ZPE_vib = Sum_i nu_i / 2
    Electronic ZPE          0.000 [kcal/mol]        0.000 [kJ/mol]       0.00000000 [Eh]
    Translational ZPE       0.000 [kcal/mol]        0.000 [kJ/mol]       0.00000000 [Eh]
    Rotational ZPE          0.000 [kcal/mol]        0.000 [kJ/mol]       0.00000000 [Eh]
    Vibrational ZPE        15.708 [kcal/mol]       65.723 [kJ/mol]       0.02503246 [Eh]        5493.990 [cm^-1]
  Correction ZPE           15.708 [kcal/mol]       65.723 [kJ/mol]       0.02503246 [Eh]        5493.990 [cm^-1]
  Total ZPE, Electronic energy at 0 [K]                               -437.39264306 [Eh]

  Thermal Energy, E (includes ZPE)
    Electronic E            0.000 [kcal/mol]        0.000 [kJ/mol]       0.00000000 [Eh]
    Translational E         0.889 [kcal/mol]        3.718 [kJ/mol]       0.00141628 [Eh]
    Rotational E            0.889 [kcal/mol]        3.718 [kJ/mol]       0.00141628 [Eh]
    Vibrational E          15.765 [kcal/mol]       65.962 [kJ/mol]       0.02512378 [Eh]
  Correction E             17.543 [kcal/mol]       73.399 [kJ/mol]       0.02795634 [Eh]
  Total E, Electronic energy at  298.15 [K]                           -437.38971918 [Eh]

  Enthalpy, H_trans = E_trans + k_B * T
    Electronic H            0.000 [kcal/mol]        0.000 [kJ/mol]       0.00000000 [Eh]
    Translational H         1.481 [kcal/mol]        6.197 [kJ/mol]       0.00236046 [Eh]
    Rotational H            0.889 [kcal/mol]        3.718 [kJ/mol]       0.00141628 [Eh]
    Vibrational H          15.765 [kcal/mol]       65.962 [kJ/mol]       0.02512378 [Eh]
  Correction H             18.135 [kcal/mol]       75.878 [kJ/mol]       0.02890052 [Eh]
  Total H, Enthalpy at  298.15 [K]                                    -437.38877499 [Eh]

  Gibbs free energy, G = H - T * S
    Electronic G            0.000 [kcal/mol]        0.000 [kJ/mol]       0.00000000 [Eh]
    Translational G        -9.670 [kcal/mol]      -40.461 [kJ/mol]      -0.01541068 [Eh]
    Rotational G           -4.313 [kcal/mol]      -18.045 [kJ/mol]      -0.00687290 [Eh]
    Vibrational G          15.697 [kcal/mol]       65.677 [kJ/mol]       0.02501486 [Eh]
  Correction G              1.714 [kcal/mol]        7.171 [kJ/mol]       0.00273128 [Eh]
  Total G, Free enthalpy at  298.15 [K]                               -437.41494424 [Eh]

*** Psi4 exiting successfully. Buy a developer a beer!
