                               Psi4 1.3.2 release

  ==> Input File <==

--------------------------------------------------------------------------
memory 144 GB

molecule {
0 1
O 0.0000000000 0.0000000000 0.0000000000
H 0.0000000000 0.0000000000 0.9579000000
H 0.9289588892 0.0000000000 -0.2336831018
}

set dynamic_level 1
set basis cc-pV(T+d)Z

optimize("wB97X-V")
frequencies("wB97X-V")
--------------------------------------------------------------------------

    Molecular point group: c2v
  Charge       = 0
  Multiplicity = 1
  Basis Set: CC-PV(T+D)Z
    Blend: CC-PV(T+D)Z
  Basis Set: (CC-PV(T+D)Z AUX)
    Blend: CC-PVTZ-JKFIT
  @DF-RKS Final Energy:   -76.42770380826249
    Total Energy =                        -76.4277038082624927
    Molecular point group: c2v
  Basis Set: CC-PV(T+D)Z
    Blend: CC-PV(T+D)Z
  Basis Set: (CC-PV(T+D)Z AUX)
    Blend: CC-PVTZ-JKFIT
  @DF-RKS Final Energy:   -76.42770743455949
    Total Energy =                        -76.4277074345594940
  Basis Set: CC-PV(T+D)Z
    Blend: CC-PV(T+D)Z
  Basis Set: (CC-PV(T+D)Z AUX)
    Blend: CC-PVTZ-JKFIT
  @DF-RKS Final Energy:   -76.42769361607131
    Total Energy =                        -76.4276936160713092
  Basis Set: CC-PV(T+D)Z
    Blend: CC-PV(T+D)Z
  Basis Set: (CC-PV(T+D)Z AUX)
    Blend: CC-PVTZ-JKFIT
  @DF-RKS Final Energy:   -76.42768207652173
    Total Energy =                        -76.4276820765217337
  @DF-RKS Final Energy:   -76.42771527306284
    Total Energy =                        -76.4277152730628444
  @DF-RKS Final Energy:   -76.42771755591804
    Total Energy =                        -76.4277175559180364
  @DF-RKS Final Energy:   -76.42771433489783
    Total Energy =                        -76.4277143348978285
  @DF-RKS Final Energy:   -76.42771432464389
    Total Energy =                        -76.4277143246438868
  @DF-RKS Final Energy:   -76.42771426758028
    Total Energy =                        -76.4277142675802850
  @DF-RKS Final Energy:   -76.42771069944467
    Total Energy =                        -76.4277106994446882
  @DF-RKS Final Energy:   -76.42771784576878
    Total Energy =                        -76.4277178457687825
  @DF-RKS Final Energy:   -76.42771472222418
    Total Energy =                        -76.4277147222241666
  @DF-RKS Final Energy:   -76.42771450379583
    Total Energy =                        -76.4277145037958263
  @DF-RKS Final Energy:   -76.42771273879386
    Total Energy =                        -76.4277127387938577
  @DF-RKS Final Energy:   -76.42771280090794
    Total Energy =                        -76.4277128009079405
  **** Optimization is complete! (in 3 steps) ****
    Final optimized geometry and variables:
  @DF-RKS Final Energy:   -76.42771784576878
    Total Energy =                        -76.4277178457687967
  @DF-RKS Final Energy:   -76.42771472222425
    Total Energy =                        -76.4277147222242519
  @DF-RKS Final Energy:   -76.42771450379590
    Total Energy =                        -76.4277145037958974
  @DF-RKS Final Energy:   -76.42771273879390
    Total Energy =                        -76.4277127387938862
  @DF-RKS Final Energy:   -76.42771280090786
    Total Energy =                        -76.4277128009078695
  @DF-RKS Final Energy:   -76.42771784576885
    Total Energy =                        -76.4277178457688535
  @DF-RKS Final Energy:   -76.42771472222421
    Total Energy =                        -76.4277147222242235
  @DF-RKS Final Energy:   -76.42771450379578
    Total Energy =                        -76.4277145037958121
  @DF-RKS Final Energy:   -76.42771273879382
    Total Energy =                        -76.4277127387938151
  Basis Set: CC-PV(T+D)Z
    Blend: CC-PV(T+D)Z
  Basis Set: (CC-PV(T+D)Z AUX)
    Blend: CC-PVTZ-JKFIT
  @DF-RKS Final Energy:   -76.42771280090786
    Total Energy =                        -76.4277128009078695
  Basis Set: CC-PV(T+D)Z
    Blend: CC-PV(T+D)Z
  Basis Set: (CC-PV(T+D)Z AUX)
    Blend: CC-PVTZ-JKFIT
  @DF-RKS Final Energy:   -76.42771489644207
    Total Energy =                        -76.4277148964420832
  Multiplicity = 1
  Basis Set: CC-PV(T+D)Z
    Blend: CC-PV(T+D)Z
  Basis Set: (CC-PV(T+D)Z AUX)
    Blend: CC-PVTZ-JKFIT
  @DF-RKS Final Energy:   -76.42771507304838
    Total Energy =                        -76.4277150730483754
    Molecular point group: cs

    Geometry (in Angstrom), charge = 0, multiplicity = 1:

       Center              X                  Y                   Z               Mass
    ------------   -----------------  -----------------  -----------------  -----------------
         O            0.000000000000    -0.000178784929    -0.065779196780    15.994914619570
         H            0.000000000000     0.760500556187     0.523080318536     1.007825032230
         H            0.000000000000    -0.757663109628     0.520883268985     1.007825032230

  Charge       = 0
  Multiplicity = 1
  Basis Set: CC-PV(T+D)Z
    Blend: CC-PV(T+D)Z
  Basis Set: (CC-PV(T+D)Z AUX)
    Blend: CC-PVTZ-JKFIT

    Orbital Energies [Eh]
    ---------------------

    Doubly Occupied:

       1Ap   -19.205278     2Ap    -1.133677     3Ap    -0.635281
       4Ap    -0.493551     1App   -0.417448

  @DF-RKS Final Energy:   -76.42771044538159

   => Energetics <=

    Nuclear Repulsion Energy =              9.1678932469105234
    One-Electron Energy =                -123.0702448987705822
    Two-Electron Energy =                  43.9722554970612975
    DFT Exchange-Correlation Energy =      -6.5402197988902886
    Empirical Dispersion Energy =           0.0000000000000000
    VV10 Nonlocal Energy =                  0.0426055083074723
    Total Energy =                        -76.4277104453815781

  Dipole Moment: [D]
     X:     0.0000      Y:     0.0027      Z:     1.9317     Total:     1.9317

  Vibration                       7                   8                   9
  Freq [cm^-1]                1644.2049           3854.9803           3955.2733
  Irrep                           A1                  A1                  B2
  Reduced mass [u]              1.0828              1.0451              1.0819
  Force const [mDyne/A]         1.7247              9.1503              9.9718

  ==> Thermochemistry Components <==

  Entropy, S
    Electronic S            0.000 [cal/(mol K)]        0.000 [J/(mol K)]       0.00000000 [mEh/K] (multiplicity = 1)
    Translational S        34.608 [cal/(mol K)]      144.801 [J/(mol K)]       0.05515177 [mEh/K] (mol. weight = 18.0106 [u], P = 101325.00 [Pa])
    Rotational S           10.464 [cal/(mol K)]       43.780 [J/(mol K)]       0.01667482 [mEh/K] (symmetry no. = 2)
    Vibrational S           0.006 [cal/(mol K)]        0.027 [J/(mol K)]       0.00001014 [mEh/K]
  Total S                  45.078 [cal/(mol K)]      188.607 [J/(mol K)]       0.07183673 [mEh/K]
  Correction S              0.000 [cal/(mol K)]        0.000 [J/(mol K)]       0.00000000 [mEh/K]

  Constant volume heat capacity, Cv
    Electronic Cv           0.000 [cal/(mol K)]        0.000 [J/(mol K)]       0.00000000 [mEh/K]
    Translational Cv        2.981 [cal/(mol K)]       12.472 [J/(mol K)]       0.00475022 [mEh/K]
    Rotational Cv           2.981 [cal/(mol K)]       12.472 [J/(mol K)]       0.00475022 [mEh/K]
    Vibrational Cv          0.045 [cal/(mol K)]        0.188 [J/(mol K)]       0.00007148 [mEh/K]
  Total Cv                  6.006 [cal/(mol K)]       25.131 [J/(mol K)]       0.00957191 [mEh/K]
  Correction Cv             0.000 [cal/(mol K)]        0.000 [J/(mol K)]       0.00000000 [mEh/K]

  Constant pressure heat capacity, Cp
    Electronic Cp           0.000 [cal/(mol K)]        0.000 [J/(mol K)]       0.00000000 [mEh/K]
    Translational Cp        4.968 [cal/(mol K)]       20.786 [J/(mol K)]       0.00791703 [mEh/K]
    Rotational Cp           2.981 [cal/(mol K)]       12.472 [J/(mol K)]       0.00475022 [mEh/K]
    Vibrational Cp          0.045 [cal/(mol K)]        0.188 [J/(mol K)]       0.00007148 [mEh/K]
  Total Cp                  7.994 [cal/(mol K)]       33.446 [J/(mol K)]       0.01273872 [mEh/K]
  Correction Cp             0.000 [cal/(mol K)]        0.000 [J/(mol K)]       0.00000000 [mEh/K]

  ==> Thermochemistry Energy Analysis <==

  Raw electronic energy, E0
  Total E0, Electronic energy at well bottom at 0 [K]                  -76.42771785 [Eh]

  Zero-point energy, ZPE_vib = Sum_i nu_i / 2
    Electronic ZPE          0.000 [kcal/mol]        0.000 [kJ/mol]       0.00000000 [Eh]
    Translational ZPE       0.000 [kcal/mol]        0.000 [kJ/mol]       0.00000000 [Eh]
    Rotational ZPE          0.000 [kcal/mol]        0.000 [kJ/mol]       0.00000000 [Eh]
    Vibrational ZPE        13.516 [kcal/mol]       56.550 [kJ/mol]       0.02153884 [Eh]        4727.229 [cm^-1]
  Correction ZPE           13.516 [kcal/mol]       56.550 [kJ/mol]       0.02153884 [Eh]        4727.229 [cm^-1]
  Total ZPE, Electronic energy at 0 [K]                                -76.40617900 [Eh]

  Thermal Energy, E (includes ZPE)
    Electronic E            0.000 [kcal/mol]        0.000 [kJ/mol]       0.00000000 [Eh]
    Translational E         0.889 [kcal/mol]        3.718 [kJ/mol]       0.00141628 [Eh]
    Rotational E            0.889 [kcal/mol]        3.718 [kJ/mol]       0.00141628 [Eh]
    Vibrational E          13.518 [kcal/mol]       56.557 [kJ/mol]       0.02154153 [Eh]
  Correction E             15.295 [kcal/mol]       63.994 [kJ/mol]       0.02437408 [Eh]
  Total E, Electronic energy at  298.15 [K]                            -76.40334377 [Eh]

  Enthalpy, H_trans = E_trans + k_B * T
    Electronic H            0.000 [kcal/mol]        0.000 [kJ/mol]       0.00000000 [Eh]
    Translational H         1.481 [kcal/mol]        6.197 [kJ/mol]       0.00236046 [Eh]
    Rotational H            0.889 [kcal/mol]        3.718 [kJ/mol]       0.00141628 [Eh]
    Vibrational H          13.518 [kcal/mol]       56.557 [kJ/mol]       0.02154153 [Eh]
  Correction H             15.887 [kcal/mol]       66.473 [kJ/mol]       0.02531826 [Eh]
  Total H, Enthalpy at  298.15 [K]                                     -76.40239958 [Eh]

  Gibbs free energy, G = H - T * S
    Electronic G            0.000 [kcal/mol]        0.000 [kJ/mol]       0.00000000 [Eh]
    Translational G        -8.837 [kcal/mol]      -36.975 [kJ/mol]      -0.01408304 [Eh]
    Rotational G           -2.231 [kcal/mol]       -9.334 [kJ/mol]      -0.00355532 [Eh]
    Vibrational G          13.516 [kcal/mol]       56.549 [kJ/mol]       0.02153850 [Eh]
  Correction G              2.447 [kcal/mol]       10.240 [kJ/mol]       0.00390014 [Eh]
  Total G, Free enthalpy at  298.15 [K]                                -76.42381770 [Eh]

*** Psi4 exiting successfully. Buy a developer a beer!
