                               Psi4 1.3.2 release

  ==> Input File <==

--------------------------------------------------------------------------
memory 144 GB

molecule {
0 1
S 0.0000000000 0.0000000000 0.0000000000
H 0.0000000000 0.0000000000 1.3377284100
H 1.3366219004 0.0000000000 -0.0543984776
}

set dynamic_level 1
set basis cc-pV(T+d)Z

optimize("wB97X-V")
frequencies("wB97X-V")
--------------------------------------------------------------------------

    Molecular point group: c2v
  Charge       = 0
  Multiplicity = 1
  Basis Set: CC-PV(T+D)Z
    Blend: CC-PV(T+D)Z
  Basis Set: (CC-PV(T+D)Z AUX)
    Blend: CC-PVTZ-JKFIT
  @DF-RKS Final Energy:  -399.34879484727497
    Total Energy =                       -399.3487948472749736
    Molecular point group: c2v
  Basis Set: CC-PV(T+D)Z
    Blend: CC-PV(T+D)Z
  Basis Set: (CC-PV(T+D)Z AUX)
    Blend: CC-PVTZ-JKFIT
  @DF-RKS Final Energy:  -399.34879127249246
    Total Energy =                       -399.3487912724924058
  Basis Set: CC-PV(T+D)Z
    Blend: CC-PV(T+D)Z
  Basis Set: (CC-PV(T+D)Z AUX)
    Blend: CC-PVTZ-JKFIT
  @DF-RKS Final Energy:  -399.34879426279554
    Total Energy =                       -399.3487942627955931
  Basis Set: CC-PV(T+D)Z
    Blend: CC-PV(T+D)Z
  Basis Set: (CC-PV(T+D)Z AUX)
    Blend: CC-PVTZ-JKFIT
  @DF-RKS Final Energy:  -399.34879003149013
    Total Energy =                       -399.3487900314901253
  @DF-RKS Final Energy:  -399.34879517557204
    Total Energy =                       -399.3487951755720360
  @DF-RKS Final Energy:  -399.34879772441116
    Total Energy =                       -399.3487977244111562
  @DF-RKS Final Energy:  -399.34879558311371
    Total Energy =                       -399.3487955831137128
  @DF-RKS Final Energy:  -399.34879572216460
    Total Energy =                       -399.3487957221645956
  @DF-RKS Final Energy:  -399.34879601352088
    Total Energy =                       -399.3487960135208255
  @DF-RKS Final Energy:  -399.34879494553655
    Total Energy =                       -399.3487949455365538
  **** Optimization is complete! (in 2 steps) ****
    Final optimized geometry and variables:
  @DF-RKS Final Energy:  -399.34879772441110
    Total Energy =                       -399.3487977244110425
  @DF-RKS Final Energy:  -399.34879558311349
    Total Energy =                       -399.3487955831134855
  @DF-RKS Final Energy:  -399.34879572216408
    Total Energy =                       -399.3487957221640841
  @DF-RKS Final Energy:  -399.34879601352117
    Total Energy =                       -399.3487960135211097
  @DF-RKS Final Energy:  -399.34879494553633
    Total Energy =                       -399.3487949455363264
  @DF-RKS Final Energy:  -399.34879772441104
    Total Energy =                       -399.3487977244109857
  @DF-RKS Final Energy:  -399.34879558311383
    Total Energy =                       -399.3487955831138265
  @DF-RKS Final Energy:  -399.34879572216454
    Total Energy =                       -399.3487957221645388
  @DF-RKS Final Energy:  -399.34879601352139
    Total Energy =                       -399.3487960135214507
  Basis Set: CC-PV(T+D)Z
    Blend: CC-PV(T+D)Z
  Basis Set: (CC-PV(T+D)Z AUX)
    Blend: CC-PVTZ-JKFIT
  @DF-RKS Final Energy:  -399.34879494553695
    Total Energy =                       -399.3487949455369517
  Basis Set: CC-PV(T+D)Z
    Blend: CC-PV(T+D)Z
  Basis Set: (CC-PV(T+D)Z AUX)
    Blend: CC-PVTZ-JKFIT
  @DF-RKS Final Energy:  -399.34879584089333
    Total Energy =                       -399.3487958408933309
  Multiplicity = 1
  Basis Set: CC-PV(T+D)Z
    Blend: CC-PV(T+D)Z
  Basis Set: (CC-PV(T+D)Z AUX)
    Blend: CC-PVTZ-JKFIT
  @DF-RKS Final Energy:  -399.34879677107313
    Total Energy =                       -399.3487967710731255
    Molecular point group: cs

    Geometry (in Angstrom), charge = 0, multiplicity = 1:

       Center              X                  Y                   Z               Mass
    ------------   -----------------  -----------------  -----------------  -----------------
         S            0.000000000000    -0.000083640283    -0.054773482118    31.972071174400
         H            0.000000000000     0.969391509813     0.870078088132     1.007825032230
         H            0.000000000000    -0.966738119589     0.867546611334     1.007825032230

  Charge       = 0
  Multiplicity = 1
  Basis Set: CC-PV(T+D)Z
    Blend: CC-PV(T+D)Z
  Basis Set: (CC-PV(T+D)Z AUX)
    Blend: CC-PVTZ-JKFIT

    Orbital Energies [Eh]
    ---------------------

    Doubly Occupied:

       1Ap   -88.890919     2Ap    -8.049618     3Ap    -6.006455
       4Ap    -6.003026     1App   -5.996887     5Ap    -0.870692
       6Ap    -0.550634     7Ap    -0.470070     2App   -0.365067

  @DF-RKS Final Energy:  -399.34879413112861

   => Energetics <=

    Nuclear Repulsion Energy =             12.9295953173507030
    One-Electron Energy =                -576.7475296532701350
    Two-Electron Energy =                 184.1294535315170720
    DFT Exchange-Correlation Energy =     -19.7360789924045115
    Empirical Dispersion Energy =           0.0000000000000000
    VV10 Nonlocal Energy =                  0.0757656656782460
    Total Energy =                       -399.3487941311285567

  Dipole Moment: [D]
     X:     0.0000      Y:    -0.0002      Z:     1.1302     Total:     1.1302

  Vibration                       7                   8                   9
  Freq [cm^-1]                1222.2096           2756.0999           2762.5123
  Irrep                           A1                  B2                  A1
  Reduced mass [u]              1.0395              1.0400              1.0358
  Force const [mDyne/A]         0.9148              4.6545              4.6573

  ==> Thermochemistry Components <==

  Entropy, S
    Electronic S            0.000 [cal/(mol K)]        0.000 [J/(mol K)]       0.00000000 [mEh/K] (multiplicity = 1)
    Translational S        36.501 [cal/(mol K)]      152.721 [J/(mol K)]       0.05816835 [mEh/K] (mol. weight = 33.9877 [u], P = 101325.00 [Pa])
    Rotational S           12.576 [cal/(mol K)]       52.618 [J/(mol K)]       0.02004095 [mEh/K] (symmetry no. = 2)
    Vibrational S           0.038 [cal/(mol K)]        0.158 [J/(mol K)]       0.00006026 [mEh/K]
  Total S                  49.115 [cal/(mol K)]      205.497 [J/(mol K)]       0.07826957 [mEh/K]
  Correction S              0.000 [cal/(mol K)]        0.000 [J/(mol K)]       0.00000000 [mEh/K]

  Constant volume heat capacity, Cv
    Electronic Cv           0.000 [cal/(mol K)]        0.000 [J/(mol K)]       0.00000000 [mEh/K]
    Translational Cv        2.981 [cal/(mol K)]       12.472 [J/(mol K)]       0.00475022 [mEh/K]
    Rotational Cv           2.981 [cal/(mol K)]       12.472 [J/(mol K)]       0.00475022 [mEh/K]
    Vibrational Cv          0.192 [cal/(mol K)]        0.803 [J/(mol K)]       0.00030591 [mEh/K]
  Total Cv                  6.154 [cal/(mol K)]       25.747 [J/(mol K)]       0.00980634 [mEh/K]
  Correction Cv             0.000 [cal/(mol K)]        0.000 [J/(mol K)]       0.00000000 [mEh/K]

  Constant pressure heat capacity, Cp
    Electronic Cp           0.000 [cal/(mol K)]        0.000 [J/(mol K)]       0.00000000 [mEh/K]
    Translational Cp        4.968 [cal/(mol K)]       20.786 [J/(mol K)]       0.00791703 [mEh/K]
    Rotational Cp           2.981 [cal/(mol K)]       12.472 [J/(mol K)]       0.00475022 [mEh/K]
    Vibrational Cp          0.192 [cal/(mol K)]        0.803 [J/(mol K)]       0.00030591 [mEh/K]
  Total Cp                  8.141 [cal/(mol K)]       34.061 [J/(mol K)]       0.01297315 [mEh/K]
  Correction Cp             0.000 [cal/(mol K)]        0.000 [J/(mol K)]       0.00000000 [mEh/K]

  ==> Thermochemistry Energy Analysis <==

  Raw electronic energy, E0
  Total E0, Electronic energy at well bottom at 0 [K]                 -399.34879772 [Eh]

  Zero-point energy, ZPE_vib = Sum_i nu_i / 2
    Electronic ZPE          0.000 [kcal/mol]        0.000 [kJ/mol]       0.00000000 [Eh]
    Translational ZPE       0.000 [kcal/mol]        0.000 [kJ/mol]       0.00000000 [Eh]
    Rotational ZPE          0.000 [kcal/mol]        0.000 [kJ/mol]       0.00000000 [Eh]
    Vibrational ZPE         9.636 [kcal/mol]       40.319 [kJ/mol]       0.01535672 [Eh]        3370.411 [cm^-1]
  Correction ZPE            9.636 [kcal/mol]       40.319 [kJ/mol]       0.01535672 [Eh]        3370.411 [cm^-1]
  Total ZPE, Electronic energy at 0 [K]                               -399.33344100 [Eh]

  Thermal Energy, E (includes ZPE)
    Electronic E            0.000 [kcal/mol]        0.000 [kJ/mol]       0.00000000 [Eh]
    Translational E         0.889 [kcal/mol]        3.718 [kJ/mol]       0.00141628 [Eh]
    Rotational E            0.889 [kcal/mol]        3.718 [kJ/mol]       0.00141628 [Eh]
    Vibrational E           9.646 [kcal/mol]       40.359 [kJ/mol]       0.01537209 [Eh]
  Correction E             11.424 [kcal/mol]       47.796 [kJ/mol]       0.01820465 [Eh]
  Total E, Electronic energy at  298.15 [K]                           -399.33059308 [Eh]

  Enthalpy, H_trans = E_trans + k_B * T
    Electronic H            0.000 [kcal/mol]        0.000 [kJ/mol]       0.00000000 [Eh]
    Translational H         1.481 [kcal/mol]        6.197 [kJ/mol]       0.00236046 [Eh]
    Rotational H            0.889 [kcal/mol]        3.718 [kJ/mol]       0.00141628 [Eh]
    Vibrational H           9.646 [kcal/mol]       40.359 [kJ/mol]       0.01537209 [Eh]
  Correction H             12.016 [kcal/mol]       50.275 [kJ/mol]       0.01914883 [Eh]
  Total H, Enthalpy at  298.15 [K]                                    -399.32964889 [Eh]

  Gibbs free energy, G = H - T * S
    Electronic G            0.000 [kcal/mol]        0.000 [kJ/mol]       0.00000000 [Eh]
    Translational G        -9.402 [kcal/mol]      -39.336 [kJ/mol]      -0.01498243 [Eh]
    Rotational G           -2.861 [kcal/mol]      -11.969 [kJ/mol]      -0.00455893 [Eh]
    Vibrational G           9.635 [kcal/mol]       40.312 [kJ/mol]       0.01535412 [Eh]
  Correction G             -2.628 [kcal/mol]      -10.994 [kJ/mol]      -0.00418724 [Eh]
  Total G, Free enthalpy at  298.15 [K]                               -399.35298497 [Eh]

*** Psi4 exiting successfully. Buy a developer a beer!
