                               Psi4 1.3.2 release

  ==> Input File <==

--------------------------------------------------------------------------
memory 144 GB

molecule {
0 1
H 0.0000000000 0.0000000000 0.0000000000
C 0.0000000000 0.0000000000 1.0668000000
N 0.0000000000 0.0000000000 2.2232000000
}

set dynamic_level 1
set basis cc-pV(T+d)Z

optimize("wB97X-V")
frequencies("wB97X-V")
--------------------------------------------------------------------------

    Molecular point group: c2v
  Charge       = 0
  Multiplicity = 1
  Basis Set: CC-PV(T+D)Z
    Blend: CC-PV(T+D)Z
  Basis Set: (CC-PV(T+D)Z AUX)
    Blend: CC-PVTZ-JKFIT
  @DF-RKS Final Energy:   -93.42578861858530
    Total Energy =                        -93.4257886185853010
    Molecular point group: c2v
  Basis Set: CC-PV(T+D)Z
    Blend: CC-PV(T+D)Z
  Basis Set: (CC-PV(T+D)Z AUX)
    Blend: CC-PVTZ-JKFIT
  @DF-RKS Final Energy:   -93.42579171866190
    Total Energy =                        -93.4257917186618982
  Basis Set: CC-PV(T+D)Z
    Blend: CC-PV(T+D)Z
  Basis Set: (CC-PV(T+D)Z AUX)
    Blend: CC-PVTZ-JKFIT
  @DF-RKS Final Energy:   -93.42577500157961
    Total Energy =                        -93.4257750015796091
  Basis Set: CC-PV(T+D)Z
    Blend: CC-PV(T+D)Z
  Basis Set: (CC-PV(T+D)Z AUX)
    Blend: CC-PVTZ-JKFIT
  @DF-RKS Final Energy:   -93.42573374267101
    Total Energy =                        -93.4257337426709995
  @DF-RKS Final Energy:   -93.42583814361846
    Total Energy =                        -93.4258381436184635
  @DF-RKS Final Energy:   -93.42604828006823
    Total Energy =                        -93.4260482800682439
  @DF-RKS Final Energy:   -93.42604105403503
    Total Energy =                        -93.4260410540350250
  @DF-RKS Final Energy:   -93.42604512907742
    Total Energy =                        -93.4260451290774228
  @DF-RKS Final Energy:   -93.42604557606079
    Total Energy =                        -93.4260455760608011
  @DF-RKS Final Energy:   -93.42604531096696
    Total Energy =                        -93.4260453109669697
  @DF-RKS Final Energy:   -93.42604849489270
    Total Energy =                        -93.4260484948926972
  @DF-RKS Final Energy:   -93.42604342431818
    Total Energy =                        -93.4260434243181805
  @DF-RKS Final Energy:   -93.42604315635931
    Total Energy =                        -93.4260431563593130
  @DF-RKS Final Energy:   -93.42604565239509
    Total Energy =                        -93.4260456523951035
  @DF-RKS Final Energy:   -93.42604566083966
    Total Energy =                        -93.4260456608396623
  **** Optimization is complete! (in 3 steps) ****
    Final optimized geometry and variables:
  @DF-RKS Final Energy:   -93.42604849489265
    Total Energy =                        -93.4260484948926546
  @DF-RKS Final Energy:   -93.42604342431805
    Total Energy =                        -93.4260434243180384
  @DF-RKS Final Energy:   -93.42604315635933
    Total Energy =                        -93.4260431563593272
  @DF-RKS Final Energy:   -93.42604565239508
    Total Energy =                        -93.4260456523950751
  @DF-RKS Final Energy:   -93.42604566083972
    Total Energy =                        -93.4260456608397334
  @DF-RKS Final Energy:   -93.42604849489267
    Total Energy =                        -93.4260484948926688
  @DF-RKS Final Energy:   -93.42604342431812
    Total Energy =                        -93.4260434243181379
  @DF-RKS Final Energy:   -93.42604315635934
    Total Energy =                        -93.4260431563593414
  @DF-RKS Final Energy:   -93.42604565239516
    Total Energy =                        -93.4260456523951603
  @DF-RKS Final Energy:   -93.42604566083972
    Total Energy =                        -93.4260456608397334
  Basis Set: CC-PV(T+D)Z
    Blend: CC-PV(T+D)Z
  Basis Set: (CC-PV(T+D)Z AUX)
    Blend: CC-PVTZ-JKFIT
  @DF-RKS Final Energy:   -93.42604264803482
    Total Energy =                        -93.4260426480348229
  Basis Set: CC-PV(T+D)Z
    Blend: CC-PV(T+D)Z
  Basis Set: (CC-PV(T+D)Z AUX)
    Blend: CC-PVTZ-JKFIT
  @DF-RKS Final Energy:   -93.42604288103678
    Total Energy =                        -93.4260428810367642
  Multiplicity = 1
  Basis Set: CC-PV(T+D)Z
    Blend: CC-PV(T+D)Z
  Basis Set: (CC-PV(T+D)Z AUX)
    Blend: CC-PVTZ-JKFIT
  @DF-RKS Final Energy:   -93.42604820709035
    Total Energy =                        -93.4260482070903606
    Molecular point group: cs

    Geometry (in Angstrom), charge = 0, multiplicity = 1:

       Center              X                  Y                   Z               Mass
    ------------   -----------------  -----------------  -----------------  -----------------
         H            0.000000000000    -0.002246639476    -1.622743307123     1.007825032230
         C            0.000000000000     0.000364632119    -0.554194961941    12.000000000000
         N            0.000000000000    -0.000150778745     0.591711567508    14.003074004430

  Charge       = 0
  Multiplicity = 1
  Basis Set: CC-PV(T+D)Z
    Blend: CC-PV(T+D)Z
  Basis Set: (CC-PV(T+D)Z AUX)
    Blend: CC-PVTZ-JKFIT

    Orbital Energies [Eh]
    ---------------------

    Doubly Occupied:

       1Ap   -14.434450     2Ap   -10.323697     3Ap    -1.056212
       4Ap    -0.726318     5Ap    -0.498008     1App   -0.474351
       6Ap    -0.474351

  @DF-RKS Final Energy:   -93.42604820711676

   => Energetics <=

    Nuclear Repulsion Energy =             24.0396346302047661
    One-Electron Energy =                -173.0806114447236723
    Two-Electron Energy =                  64.3491469933937736
    DFT Exchange-Correlation Energy =      -8.7926079880235530
    Empirical Dispersion Energy =           0.0000000000000000
    VV10 Nonlocal Energy =                  0.0583896020319233
    Total Energy =                        -93.4260482071167502

  Dipole Moment: [D]
     X:     0.0000      Y:    -0.0024      Z:    -3.0253     Total:     3.0253

  Vibration                       6                   7                   8
  Freq [cm^-1]                 779.9675            780.0033           2236.9647
  Irrep                           B2                  B1                  A1
  Reduced mass [u]              1.3455              1.3455              4.9412
  Force const [mDyne/A]         0.4823              0.4823             14.5679

  Vibration                       9
  Freq [cm^-1]                3463.8530
  Irrep                           A1
  Reduced mass [u]              1.1997
  Force const [mDyne/A]         8.4810

  ==> Thermochemistry Components <==

  Entropy, S
    Electronic S            0.000 [cal/(mol K)]        0.000 [J/(mol K)]       0.00000000 [mEh/K] (multiplicity = 1)
    Translational S        35.816 [cal/(mol K)]      149.856 [J/(mol K)]       0.05707695 [mEh/K] (mol. weight = 27.0109 [u], P = 101325.00 [Pa])
    Rotational S           11.781 [cal/(mol K)]       49.294 [J/(mol K)]       0.01877501 [mEh/K] (symmetry no. = 1)
    Vibrational S           0.449 [cal/(mol K)]        1.878 [J/(mol K)]       0.00071539 [mEh/K]
  Total S                  48.047 [cal/(mol K)]      201.028 [J/(mol K)]       0.07656735 [mEh/K]
  Correction S              0.000 [cal/(mol K)]        0.000 [J/(mol K)]       0.00000000 [mEh/K]

  Constant volume heat capacity, Cv
    Electronic Cv           0.000 [cal/(mol K)]        0.000 [J/(mol K)]       0.00000000 [mEh/K]
    Translational Cv        2.981 [cal/(mol K)]       12.472 [J/(mol K)]       0.00475022 [mEh/K]
    Rotational Cv           1.987 [cal/(mol K)]        8.314 [J/(mol K)]       0.00316681 [mEh/K]
    Vibrational Cv          1.373 [cal/(mol K)]        5.746 [J/(mol K)]       0.00218862 [mEh/K]
  Total Cv                  6.341 [cal/(mol K)]       26.532 [J/(mol K)]       0.01010564 [mEh/K]
  Correction Cv             0.000 [cal/(mol K)]        0.000 [J/(mol K)]       0.00000000 [mEh/K]

  Constant pressure heat capacity, Cp
    Electronic Cp           0.000 [cal/(mol K)]        0.000 [J/(mol K)]       0.00000000 [mEh/K]
    Translational Cp        4.968 [cal/(mol K)]       20.786 [J/(mol K)]       0.00791703 [mEh/K]
    Rotational Cp           1.987 [cal/(mol K)]        8.314 [J/(mol K)]       0.00316681 [mEh/K]
    Vibrational Cp          1.373 [cal/(mol K)]        5.746 [J/(mol K)]       0.00218862 [mEh/K]
  Total Cp                  8.329 [cal/(mol K)]       34.847 [J/(mol K)]       0.01327245 [mEh/K]
  Correction Cp             0.000 [cal/(mol K)]        0.000 [J/(mol K)]       0.00000000 [mEh/K]

  ==> Thermochemistry Energy Analysis <==

  Raw electronic energy, E0
  Total E0, Electronic energy at well bottom at 0 [K]                  -93.42604849 [Eh]

  Zero-point energy, ZPE_vib = Sum_i nu_i / 2
    Electronic ZPE          0.000 [kcal/mol]        0.000 [kJ/mol]       0.00000000 [Eh]
    Translational ZPE       0.000 [kcal/mol]        0.000 [kJ/mol]       0.00000000 [Eh]
    Rotational ZPE          0.000 [kcal/mol]        0.000 [kJ/mol]       0.00000000 [Eh]
    Vibrational ZPE        10.380 [kcal/mol]       43.429 [kJ/mol]       0.01654129 [Eh]        3630.394 [cm^-1]
  Correction ZPE           10.380 [kcal/mol]       43.429 [kJ/mol]       0.01654129 [Eh]        3630.394 [cm^-1]
  Total ZPE, Electronic energy at 0 [K]                                -93.40950720 [Eh]

  Thermal Energy, E (includes ZPE)
    Electronic E            0.000 [kcal/mol]        0.000 [kJ/mol]       0.00000000 [Eh]
    Translational E         0.889 [kcal/mol]        3.718 [kJ/mol]       0.00141628 [Eh]
    Rotational E            0.592 [kcal/mol]        2.479 [kJ/mol]       0.00094418 [Eh]
    Vibrational E          10.486 [kcal/mol]       43.873 [kJ/mol]       0.01671026 [Eh]
  Correction E             11.967 [kcal/mol]       50.070 [kJ/mol]       0.01907072 [Eh]
  Total E, Electronic energy at  298.15 [K]                            -93.40697778 [Eh]

  Enthalpy, H_trans = E_trans + k_B * T
    Electronic H            0.000 [kcal/mol]        0.000 [kJ/mol]       0.00000000 [Eh]
    Translational H         1.481 [kcal/mol]        6.197 [kJ/mol]       0.00236046 [Eh]
    Rotational H            0.592 [kcal/mol]        2.479 [kJ/mol]       0.00094418 [Eh]
    Vibrational H          10.486 [kcal/mol]       43.873 [kJ/mol]       0.01671026 [Eh]
  Correction H             12.560 [kcal/mol]       52.549 [kJ/mol]       0.02001490 [Eh]
  Total H, Enthalpy at  298.15 [K]                                     -93.40603359 [Eh]

  Gibbs free energy, G = H - T * S
    Electronic G            0.000 [kcal/mol]        0.000 [kJ/mol]       0.00000000 [Eh]
    Translational G        -9.197 [kcal/mol]      -38.482 [kJ/mol]      -0.01465703 [Eh]
    Rotational G           -2.920 [kcal/mol]      -12.218 [kJ/mol]      -0.00465358 [Eh]
    Vibrational G          10.352 [kcal/mol]       43.313 [kJ/mol]       0.01649696 [Eh]
  Correction G             -1.766 [kcal/mol]       -7.387 [kJ/mol]      -0.00281365 [Eh]
  Total G, Free enthalpy at  298.15 [K]                                -93.42886215 [Eh]

*** Psi4 exiting successfully. Buy a developer a beer!
