                               Psi4 1.3.2 release

  ==> Input File <==

--------------------------------------------------------------------------
memory 144 GB

molecule {
0 1
F 0.0000000000 0.0000000000 0.0000000000
H 0.0000000000 0.0000000000 0.9157690000
}

set dynamic_level 1
set basis cc-pV(T+d)Z

optimize("wB97X-V")
frequencies("wB97X-V")
--------------------------------------------------------------------------

    Molecular point group: c2v
  Charge       = 0
  Multiplicity = 1
  Basis Set: CC-PV(T+D)Z
    Blend: CC-PV(T+D)Z
  Basis Set: (CC-PV(T+D)Z AUX)
    Blend: CC-PVTZ-JKFIT
  @DF-RKS Final Energy:  -100.44494940599570
    Total Energy =                       -100.4449494059956862
    Molecular point group: c2v
  Basis Set: CC-PV(T+D)Z
    Blend: CC-PV(T+D)Z
  Basis Set: (CC-PV(T+D)Z AUX)
    Blend: CC-PVTZ-JKFIT
  @DF-RKS Final Energy:  -100.44497001677884
    Total Energy =                       -100.4449700167788251
  Basis Set: CC-PV(T+D)Z
    Blend: CC-PV(T+D)Z
  Basis Set: (CC-PV(T+D)Z AUX)
    Blend: CC-PVTZ-JKFIT
  @DF-RKS Final Energy:  -100.44491199568660
    Total Energy =                       -100.4449119956865957
  Basis Set: CC-PV(T+D)Z
    Blend: CC-PV(T+D)Z
  Basis Set: (CC-PV(T+D)Z AUX)
    Blend: CC-PVTZ-JKFIT
  @DF-RKS Final Energy:  -100.44497459894217
    Total Energy =                       -100.4449745989421530
  @DF-RKS Final Energy:  -100.44496774713791
    Total Energy =                       -100.4449677471379090
  @DF-RKS Final Energy:  -100.44496519062307
    Total Energy =                       -100.4449651906230798
  **** Optimization is complete! (in 2 steps) ****
    Final optimized geometry and variables:
  @DF-RKS Final Energy:  -100.44497459894212
    Total Energy =                       -100.4449745989421103
  @DF-RKS Final Energy:  -100.44496774713808
    Total Energy =                       -100.4449677471380795
  Basis Set: CC-PV(T+D)Z
    Blend: CC-PV(T+D)Z
  Basis Set: (CC-PV(T+D)Z AUX)
    Blend: CC-PVTZ-JKFIT
  @DF-RKS Final Energy:  -100.44496519062292
    Total Energy =                       -100.4449651906229235
  Basis Set: CC-PV(T+D)Z
    Blend: CC-PV(T+D)Z
  Basis Set: (CC-PV(T+D)Z AUX)
    Blend: CC-PVTZ-JKFIT
  @DF-RKS Final Energy:  -100.44497459894217
    Total Energy =                       -100.4449745989421672
  Multiplicity = 1
  Basis Set: CC-PV(T+D)Z
    Blend: CC-PV(T+D)Z
  Basis Set: (CC-PV(T+D)Z AUX)
    Blend: CC-PVTZ-JKFIT
  @DF-RKS Final Energy:  -100.44496774713799
    Total Energy =                       -100.4449677471379943
    Molecular point group: c2v

    Geometry (in Angstrom), charge = 0, multiplicity = 1:

       Center              X                  Y                   Z               Mass
    ------------   -----------------  -----------------  -----------------  -----------------
         F            0.000000000000     0.000000000000    -0.046224728215    18.998403162730
         H            0.000000000000     0.000000000000     0.871377465953     1.007825032230

  Charge       = 0
  Multiplicity = 1
  Basis Set: CC-PV(T+D)Z
    Blend: CC-PV(T+D)Z
  Basis Set: (CC-PV(T+D)Z AUX)
    Blend: CC-PVTZ-JKFIT

    Orbital Energies [Eh]
    ---------------------

    Doubly Occupied:

       1A1   -24.740252     2A1    -1.318366     3A1    -0.653333
       1B1    -0.516734     1B2    -0.516734

  @DF-RKS Final Energy:  -100.44496519062292

   => Energetics <=

    Nuclear Repulsion Energy =              5.1902610153980877
    One-Electron Energy =                -150.5698705323700608
    Two-Electron Energy =                  52.6540521878487056
    DFT Exchange-Correlation Energy =      -7.7628197001031332
    Empirical Dispersion Energy =           0.0000000000000000
    VV10 Nonlocal Energy =                  0.0434118386034872
    Total Energy =                       -100.4449651906229235

  Dipole Moment: [D]
     X:     0.0000      Y:     0.0000      Z:     1.8232     Total:     1.8232

  Vibration                       6
  Freq [cm^-1]                4145.6840
  Irrep                           A1
  Reduced mass [u]              1.0583
  Force const [mDyne/A]        10.7166

  ==> Thermochemistry Components <==

  Entropy, S
    Electronic S            0.000 [cal/(mol K)]        0.000 [J/(mol K)]       0.00000000 [mEh/K] (multiplicity = 1)
    Translational S        34.921 [cal/(mol K)]      146.112 [J/(mol K)]       0.05565095 [mEh/K] (mol. weight = 20.0062 [u], P = 101325.00 [Pa])
    Rotational S            6.556 [cal/(mol K)]       27.429 [J/(mol K)]       0.01044734 [mEh/K] (symmetry no. = 1)
    Vibrational S           0.000 [cal/(mol K)]        0.000 [J/(mol K)]       0.00000000 [mEh/K]
  Total S                  41.477 [cal/(mol K)]      173.541 [J/(mol K)]       0.06609829 [mEh/K]
  Correction S              0.000 [cal/(mol K)]        0.000 [J/(mol K)]       0.00000000 [mEh/K]

  Constant volume heat capacity, Cv
    Electronic Cv           0.000 [cal/(mol K)]        0.000 [J/(mol K)]       0.00000000 [mEh/K]
    Translational Cv        2.981 [cal/(mol K)]       12.472 [J/(mol K)]       0.00475022 [mEh/K]
    Rotational Cv           1.987 [cal/(mol K)]        8.314 [J/(mol K)]       0.00316681 [mEh/K]
    Vibrational Cv          0.000 [cal/(mol K)]        0.000 [J/(mol K)]       0.00000000 [mEh/K]
  Total Cv                  4.968 [cal/(mol K)]       20.786 [J/(mol K)]       0.00791703 [mEh/K]
  Correction Cv             0.000 [cal/(mol K)]        0.000 [J/(mol K)]       0.00000000 [mEh/K]

  Constant pressure heat capacity, Cp
    Electronic Cp           0.000 [cal/(mol K)]        0.000 [J/(mol K)]       0.00000000 [mEh/K]
    Translational Cp        4.968 [cal/(mol K)]       20.786 [J/(mol K)]       0.00791703 [mEh/K]
    Rotational Cp           1.987 [cal/(mol K)]        8.314 [J/(mol K)]       0.00316681 [mEh/K]
    Vibrational Cp          0.000 [cal/(mol K)]        0.000 [J/(mol K)]       0.00000000 [mEh/K]
  Total Cp                  6.955 [cal/(mol K)]       29.101 [J/(mol K)]       0.01108384 [mEh/K]
  Correction Cp             0.000 [cal/(mol K)]        0.000 [J/(mol K)]       0.00000000 [mEh/K]

  ==> Thermochemistry Energy Analysis <==

  Raw electronic energy, E0
  Total E0, Electronic energy at well bottom at 0 [K]                 -100.44497460 [Eh]

  Zero-point energy, ZPE_vib = Sum_i nu_i / 2
    Electronic ZPE          0.000 [kcal/mol]        0.000 [kJ/mol]       0.00000000 [Eh]
    Translational ZPE       0.000 [kcal/mol]        0.000 [kJ/mol]       0.00000000 [Eh]
    Rotational ZPE          0.000 [kcal/mol]        0.000 [kJ/mol]       0.00000000 [Eh]
    Vibrational ZPE         5.927 [kcal/mol]       24.797 [kJ/mol]       0.00944456 [Eh]        2072.842 [cm^-1]
  Correction ZPE            5.927 [kcal/mol]       24.797 [kJ/mol]       0.00944456 [Eh]        2072.842 [cm^-1]
  Total ZPE, Electronic energy at 0 [K]                               -100.43553004 [Eh]

  Thermal Energy, E (includes ZPE)
    Electronic E            0.000 [kcal/mol]        0.000 [kJ/mol]       0.00000000 [Eh]
    Translational E         0.889 [kcal/mol]        3.718 [kJ/mol]       0.00141628 [Eh]
    Rotational E            0.592 [kcal/mol]        2.479 [kJ/mol]       0.00094418 [Eh]
    Vibrational E           5.927 [kcal/mol]       24.797 [kJ/mol]       0.00944456 [Eh]
  Correction E              7.408 [kcal/mol]       30.994 [kJ/mol]       0.01180502 [Eh]
  Total E, Electronic energy at  298.15 [K]                           -100.43316957 [Eh]

  Enthalpy, H_trans = E_trans + k_B * T
    Electronic H            0.000 [kcal/mol]        0.000 [kJ/mol]       0.00000000 [Eh]
    Translational H         1.481 [kcal/mol]        6.197 [kJ/mol]       0.00236046 [Eh]
    Rotational H            0.592 [kcal/mol]        2.479 [kJ/mol]       0.00094418 [Eh]
    Vibrational H           5.927 [kcal/mol]       24.797 [kJ/mol]       0.00944456 [Eh]
  Correction H              8.000 [kcal/mol]       33.473 [kJ/mol]       0.01274921 [Eh]
  Total H, Enthalpy at  298.15 [K]                                    -100.43222539 [Eh]

  Gibbs free energy, G = H - T * S
    Electronic G            0.000 [kcal/mol]        0.000 [kJ/mol]       0.00000000 [Eh]
    Translational G        -8.931 [kcal/mol]      -37.366 [kJ/mol]      -0.01423187 [Eh]
    Rotational G           -1.362 [kcal/mol]       -5.699 [kJ/mol]      -0.00217069 [Eh]
    Vibrational G           5.927 [kcal/mol]       24.797 [kJ/mol]       0.00944456 [Eh]
  Correction G             -4.366 [kcal/mol]      -18.268 [kJ/mol]      -0.00695800 [Eh]
  Total G, Free enthalpy at  298.15 [K]                               -100.45193259 [Eh]

*** Psi4 exiting successfully. Buy a developer a beer!
