                               Psi4 1.3.2 release

  ==> Input File <==

--------------------------------------------------------------------------
memory 144 GB

molecule {
0 1
N 0.0000000000 0.0000000000 0.0000000000
H 0.0000000000 0.0000000000 1.0535284100
O 1.1513717966 0.0000000000 -0.3743228181
}

set dynamic_level 1
set basis cc-pV(T+d)Z

optimize("wB97X-V")
frequencies("wB97X-V")
--------------------------------------------------------------------------

    Molecular point group: cs
  Charge       = 0
  Multiplicity = 1
  Basis Set: CC-PV(T+D)Z
    Blend: CC-PV(T+D)Z
  Basis Set: (CC-PV(T+D)Z AUX)
    Blend: CC-PVTZ-JKFIT
  @DF-RKS Final Energy:  -130.47777485521104
    Total Energy =                       -130.4777748552110381
    Molecular point group: cs
  Basis Set: CC-PV(T+D)Z
    Blend: CC-PV(T+D)Z
  Basis Set: (CC-PV(T+D)Z AUX)
    Blend: CC-PVTZ-JKFIT
  @DF-RKS Final Energy:  -130.47781316370740
    Total Energy =                       -130.4778131637073670
  Basis Set: CC-PV(T+D)Z
    Blend: CC-PV(T+D)Z
  Basis Set: (CC-PV(T+D)Z AUX)
    Blend: CC-PVTZ-JKFIT
  @DF-RKS Final Energy:  -130.47773401536605
    Total Energy =                       -130.4777340153660532
  Basis Set: CC-PV(T+D)Z
    Blend: CC-PV(T+D)Z
  Basis Set: (CC-PV(T+D)Z AUX)
    Blend: CC-PVTZ-JKFIT
  @DF-RKS Final Energy:  -130.47778674200700
    Total Energy =                       -130.4777867420069981
  @DF-RKS Final Energy:  -130.47775756589567
    Total Energy =                       -130.4777575658956721
  @DF-RKS Final Energy:  -130.47777533815861
    Total Energy =                       -130.4777753381585796
  @DF-RKS Final Energy:  -130.47776877262157
    Total Energy =                       -130.4777687726215731
  @DF-RKS Final Energy:  -130.47807975629030
    Total Energy =                       -130.4780797562902990
  @DF-RKS Final Energy:  -130.47808796845692
    Total Energy =                       -130.4780879684568902
  @DF-RKS Final Energy:  -130.47806880866136
    Total Energy =                       -130.4780688086613623
  @DF-RKS Final Energy:  -130.47807833994875
    Total Energy =                       -130.4780783399487518
  @DF-RKS Final Energy:  -130.47807583412845
    Total Energy =                       -130.4780758341284468
  @DF-RKS Final Energy:  -130.47806720219029
    Total Energy =                       -130.4780672021902888
  @DF-RKS Final Energy:  -130.47808670470980
    Total Energy =                       -130.4780867047098241
  @DF-RKS Final Energy:  -130.47809366982224
    Total Energy =                       -130.4780936698222433
  @DF-RKS Final Energy:  -130.47808695476093
    Total Energy =                       -130.4780869547609541
  @DF-RKS Final Energy:  -130.47809757485828
    Total Energy =                       -130.4780975748582819
  @DF-RKS Final Energy:  -130.47809848724646
    Total Energy =                       -130.4780984872464273
  @DF-RKS Final Energy:  -130.47808365690909
    Total Energy =                       -130.4780836569090923
  @DF-RKS Final Energy:  -130.47809337916198
    Total Energy =                       -130.4780933791619759
  **** Optimization is complete! (in 4 steps) ****
    Final optimized geometry and variables:
  @DF-RKS Final Energy:  -130.47811029651356
    Total Energy =                       -130.4781102965135631
  @DF-RKS Final Energy:  -130.47810908497320
    Total Energy =                       -130.4781090849731982
  @DF-RKS Final Energy:  -130.47810871972888
    Total Energy =                       -130.4781087197288798
  @DF-RKS Final Energy:  -130.47810772286627
    Total Energy =                       -130.4781077228662696
  @DF-RKS Final Energy:  -130.47810765701087
    Total Energy =                       -130.4781076570108382
  @DF-RKS Final Energy:  -130.47810703362390
    Total Energy =                       -130.4781070336238997
  @DF-RKS Final Energy:  -130.47810803404468
    Total Energy =                       -130.4781080340446806
  @DF-RKS Final Energy:  -130.47811029651365
    Total Energy =                       -130.4781102965136483
  @DF-RKS Final Energy:  -130.47810908497323
    Total Energy =                       -130.4781090849732550
  @DF-RKS Final Energy:  -130.47810871972899
    Total Energy =                       -130.4781087197289935
  @DF-RKS Final Energy:  -130.47810772286653
    Total Energy =                       -130.4781077228664969
  @DF-RKS Final Energy:  -130.47810765701101
    Total Energy =                       -130.4781076570110088
  @DF-RKS Final Energy:  -130.47810703362407
    Total Energy =                       -130.4781070336240987
  @DF-RKS Final Energy:  -130.47810803404474
    Total Energy =                       -130.4781080340447090
  @DF-RKS Final Energy:  -130.47810626957352
    Total Energy =                       -130.4781062695735159
  @DF-RKS Final Energy:  -130.47810670356003
    Total Energy =                       -130.4781067035600017
  Basis Set: CC-PV(T+D)Z
    Blend: CC-PV(T+D)Z
  Basis Set: (CC-PV(T+D)Z AUX)
    Blend: CC-PVTZ-JKFIT
  @DF-RKS Final Energy:  -130.47810600309947
    Total Energy =                       -130.4781060030994979
  Basis Set: CC-PV(T+D)Z
    Blend: CC-PV(T+D)Z
  Basis Set: (CC-PV(T+D)Z AUX)
    Blend: CC-PVTZ-JKFIT
  @DF-RKS Final Energy:  -130.47810536175450
    Total Energy =                       -130.4781053617545012
  Multiplicity = 1
  Basis Set: CC-PV(T+D)Z
    Blend: CC-PV(T+D)Z
  Basis Set: (CC-PV(T+D)Z AUX)
    Blend: CC-PVTZ-JKFIT
  @DF-RKS Final Energy:  -130.47810829226538
    Total Energy =                       -130.4781082922653752
    Molecular point group: cs

    Geometry (in Angstrom), charge = 0, multiplicity = 1:

       Center              X                  Y                   Z               Mass
    ------------   -----------------  -----------------  -----------------  -----------------
         N            0.586453481652     0.155618135030     0.000000000000    14.003074004430
         H            0.590311279667     1.213423150821     0.000000000000     1.007825032230
         O           -0.550617630519    -0.212695757886     0.000000000000    15.994914619570

  Charge       = 0
  Multiplicity = 1
  Basis Set: CC-PV(T+D)Z
    Blend: CC-PV(T+D)Z
  Basis Set: (CC-PV(T+D)Z AUX)
    Blend: CC-PVTZ-JKFIT

    Orbital Energies [Eh]
    ---------------------

    Doubly Occupied:

       1Ap   -19.296397     2Ap   -14.536257     3Ap    -1.313654
       4Ap    -0.849062     5Ap    -0.650041     1App   -0.576033
       6Ap    -0.569459     7Ap    -0.349927

  @DF-RKS Final Energy:  -130.47810735695796

   => Energetics <=

    Nuclear Repulsion Energy =             30.6131623360446312
    One-Electron Energy =                -238.4243247267300205
    Two-Electron Energy =                  88.4152940845141444
    DFT Exchange-Correlation Energy =     -11.1492117734005944
    Empirical Dispersion Energy =           0.0000000000000000
    VV10 Nonlocal Energy =                  0.0669727226138687
    Total Energy =                       -130.4781073569579917

  Dipole Moment: [D]
     X:     0.4482      Y:     1.6632      Z:     0.0000     Total:     1.7226

  Vibration                       7                   8                   9
  Freq [cm^-1]                1587.2653           1730.6137           2963.6491
  Irrep                           Ap                  Ap                  Ap
  Reduced mass [u]              1.1968             10.9078              1.0760
  Force const [mDyne/A]         1.7765             19.2480              5.5683

  ==> Thermochemistry Components <==

  Entropy, S
    Electronic S            0.000 [cal/(mol K)]        0.000 [J/(mol K)]       0.00000000 [mEh/K] (multiplicity = 1)
    Translational S        36.227 [cal/(mol K)]      151.576 [J/(mol K)]       0.05773217 [mEh/K] (mol. weight = 31.0058 [u], P = 101325.00 [Pa])
    Rotational S           16.448 [cal/(mol K)]       68.819 [J/(mol K)]       0.02621186 [mEh/K] (symmetry no. = 1)
    Vibrational S           0.013 [cal/(mol K)]        0.052 [J/(mol K)]       0.00001996 [mEh/K]
  Total S                  52.688 [cal/(mol K)]      220.447 [J/(mol K)]       0.08396399 [mEh/K]
  Correction S              0.000 [cal/(mol K)]        0.000 [J/(mol K)]       0.00000000 [mEh/K]

  Constant volume heat capacity, Cv
    Electronic Cv           0.000 [cal/(mol K)]        0.000 [J/(mol K)]       0.00000000 [mEh/K]
    Translational Cv        2.981 [cal/(mol K)]       12.472 [J/(mol K)]       0.00475022 [mEh/K]
    Rotational Cv           2.981 [cal/(mol K)]       12.472 [J/(mol K)]       0.00475022 [mEh/K]
    Vibrational Cv          0.088 [cal/(mol K)]        0.368 [J/(mol K)]       0.00014025 [mEh/K]
  Total Cv                  6.050 [cal/(mol K)]       25.312 [J/(mol K)]       0.00964068 [mEh/K]
  Correction Cv             0.000 [cal/(mol K)]        0.000 [J/(mol K)]       0.00000000 [mEh/K]

  Constant pressure heat capacity, Cp
    Electronic Cp           0.000 [cal/(mol K)]        0.000 [J/(mol K)]       0.00000000 [mEh/K]
    Translational Cp        4.968 [cal/(mol K)]       20.786 [J/(mol K)]       0.00791703 [mEh/K]
    Rotational Cp           2.981 [cal/(mol K)]       12.472 [J/(mol K)]       0.00475022 [mEh/K]
    Vibrational Cp          0.088 [cal/(mol K)]        0.368 [J/(mol K)]       0.00014025 [mEh/K]
  Total Cp                  8.037 [cal/(mol K)]       33.626 [J/(mol K)]       0.01280749 [mEh/K]
  Correction Cp             0.000 [cal/(mol K)]        0.000 [J/(mol K)]       0.00000000 [mEh/K]

  ==> Thermochemistry Energy Analysis <==

  Raw electronic energy, E0
  Total E0, Electronic energy at well bottom at 0 [K]                 -130.47811030 [Eh]

  Zero-point energy, ZPE_vib = Sum_i nu_i / 2
    Electronic ZPE          0.000 [kcal/mol]        0.000 [kJ/mol]       0.00000000 [Eh]
    Translational ZPE       0.000 [kcal/mol]        0.000 [kJ/mol]       0.00000000 [Eh]
    Rotational ZPE          0.000 [kcal/mol]        0.000 [kJ/mol]       0.00000000 [Eh]
    Vibrational ZPE         8.980 [kcal/mol]       37.572 [kJ/mol]       0.01431037 [Eh]        3140.764 [cm^-1]
  Correction ZPE            8.980 [kcal/mol]       37.572 [kJ/mol]       0.01431037 [Eh]        3140.764 [cm^-1]
  Total ZPE, Electronic energy at 0 [K]                               -130.46379992 [Eh]

  Thermal Energy, E (includes ZPE)
    Electronic E            0.000 [kcal/mol]        0.000 [kJ/mol]       0.00000000 [Eh]
    Translational E         0.889 [kcal/mol]        3.718 [kJ/mol]       0.00141628 [Eh]
    Rotational E            0.889 [kcal/mol]        3.718 [kJ/mol]       0.00141628 [Eh]
    Vibrational E           8.983 [kcal/mol]       37.586 [kJ/mol]       0.01431566 [Eh]
  Correction E             10.761 [kcal/mol]       45.023 [kJ/mol]       0.01714821 [Eh]
  Total E, Electronic energy at  298.15 [K]                           -130.46096209 [Eh]

  Enthalpy, H_trans = E_trans + k_B * T
    Electronic H            0.000 [kcal/mol]        0.000 [kJ/mol]       0.00000000 [Eh]
    Translational H         1.481 [kcal/mol]        6.197 [kJ/mol]       0.00236046 [Eh]
    Rotational H            0.889 [kcal/mol]        3.718 [kJ/mol]       0.00141628 [Eh]
    Vibrational H           8.983 [kcal/mol]       37.586 [kJ/mol]       0.01431566 [Eh]
  Correction H             11.353 [kcal/mol]       47.502 [kJ/mol]       0.01809239 [Eh]
  Total H, Enthalpy at  298.15 [K]                                    -130.46001790 [Eh]

  Gibbs free energy, G = H - T * S
    Electronic G            0.000 [kcal/mol]        0.000 [kJ/mol]       0.00000000 [Eh]
    Translational G        -9.320 [kcal/mol]      -38.995 [kJ/mol]      -0.01485238 [Eh]
    Rotational G           -4.015 [kcal/mol]      -16.800 [kJ/mol]      -0.00639879 [Eh]
    Vibrational G           8.979 [kcal/mol]       37.570 [kJ/mol]       0.01430970 [Eh]
  Correction G             -4.356 [kcal/mol]      -18.225 [kJ/mol]      -0.00694147 [Eh]
  Total G, Free enthalpy at  298.15 [K]                               -130.48505177 [Eh]

*** Psi4 exiting successfully. Buy a developer a beer!
