                               Psi4 1.3.2 release

  ==> Input File <==

--------------------------------------------------------------------------
memory 144 GB

molecule {
0 1
O 0.0000000000 0.0000000000 0.0000000000
H 0.0000000000 0.0000000000 0.9638997500
Cl 1.6530447720 0.0000000000 -0.3711121967
}

set dynamic_level 1
set basis cc-pV(T+d)Z

optimize("wB97X-V")
frequencies("wB97X-V")
--------------------------------------------------------------------------

    Molecular point group: cs
  Charge       = 0
  Multiplicity = 1
  Basis Set: CC-PV(T+D)Z
    Blend: CC-PV(T+D)Z
  Basis Set: (CC-PV(T+D)Z AUX)
    Blend: CC-PVTZ-JKFIT
  @DF-RKS Final Energy:  -535.91320747746727
    Total Energy =                       -535.9132074774672674
    Molecular point group: cs
  Basis Set: CC-PV(T+D)Z
    Blend: CC-PV(T+D)Z
  Basis Set: (CC-PV(T+D)Z AUX)
    Blend: CC-PVTZ-JKFIT
  @DF-RKS Final Energy:  -535.91322048981272
    Total Energy =                       -535.9132204898127156
  Basis Set: CC-PV(T+D)Z
    Blend: CC-PV(T+D)Z
  Basis Set: (CC-PV(T+D)Z AUX)
    Blend: CC-PVTZ-JKFIT
  @DF-RKS Final Energy:  -535.91319386490670
    Total Energy =                       -535.9131938649068161
  Basis Set: CC-PV(T+D)Z
    Blend: CC-PV(T+D)Z
  Basis Set: (CC-PV(T+D)Z AUX)
    Blend: CC-PVTZ-JKFIT
  @DF-RKS Final Energy:  -535.91320764347597
    Total Energy =                       -535.9132076434760847
  @DF-RKS Final Energy:  -535.91319781018831
    Total Energy =                       -535.9131978101883078
  @DF-RKS Final Energy:  -535.91319883736060
    Total Energy =                       -535.9131988373605964
  @DF-RKS Final Energy:  -535.91321009307649
    Total Energy =                       -535.9132100930764864
  @DF-RKS Final Energy:  -535.91333644714200
    Total Energy =                       -535.9133364471421146
  @DF-RKS Final Energy:  -535.91334082597211
    Total Energy =                       -535.9133408259721136
  @DF-RKS Final Energy:  -535.91333143290024
    Total Energy =                       -535.9133314329002360
  @DF-RKS Final Energy:  -535.91332981401320
    Total Energy =                       -535.9133298140133093
  @DF-RKS Final Energy:  -535.91333374610224
    Total Energy =                       -535.9133337461022393
  @DF-RKS Final Energy:  -535.91333197773690
    Total Energy =                       -535.9133319777369024
  @DF-RKS Final Energy:  -535.91333483275571
    Total Energy =                       -535.9133348327559361
  @DF-RKS Final Energy:  -535.91335389618462
    Total Energy =                       -535.9133538961846170
  @DF-RKS Final Energy:  -535.91335329197511
    Total Energy =                       -535.9133532919751133
  @DF-RKS Final Energy:  -535.91335384859428
    Total Energy =                       -535.9133538485942836
  @DF-RKS Final Energy:  -535.91334928154265
    Total Energy =                       -535.9133492815426507
  @DF-RKS Final Energy:  -535.91334925353203
    Total Energy =                       -535.9133492535320329
  @DF-RKS Final Energy:  -535.91335170741456
    Total Energy =                       -535.9133517074145630
  **** Optimization is complete! (in 4 steps) ****
    Final optimized geometry and variables:
  @DF-RKS Final Energy:  -535.91335408876159
    Total Energy =                       -535.9133540887615936
  @DF-RKS Final Energy:  -535.91335377577263
    Total Energy =                       -535.9133537757726344
  @DF-RKS Final Energy:  -535.91335375075107
    Total Energy =                       -535.9133537507510709
  @DF-RKS Final Energy:  -535.91334939574142
    Total Energy =                       -535.9133493957413066
  @DF-RKS Final Energy:  -535.91334950536555
    Total Energy =                       -535.9133495053655452
  @DF-RKS Final Energy:  -535.91335084619800
    Total Energy =                       -535.9133508461978863
  @DF-RKS Final Energy:  -535.91335117205688
    Total Energy =                       -535.9133511720568777
  @DF-RKS Final Energy:  -535.91335408876137
    Total Energy =                       -535.9133540887612526
  @DF-RKS Final Energy:  -535.91335377577320
    Total Energy =                       -535.9133537757732029
  @DF-RKS Final Energy:  -535.91335375075141
    Total Energy =                       -535.9133537507514120
  @DF-RKS Final Energy:  -535.91334939574097
    Total Energy =                       -535.9133493957408518
  @DF-RKS Final Energy:  -535.91334950536577
    Total Energy =                       -535.9133495053657725
  @DF-RKS Final Energy:  -535.91335084619834
    Total Energy =                       -535.9133508461982274
  @DF-RKS Final Energy:  -535.91335117205733
    Total Energy =                       -535.9133511720573324
  @DF-RKS Final Energy:  -535.91334915908101
    Total Energy =                       -535.9133491590808944
  @DF-RKS Final Energy:  -535.91334908215379
    Total Energy =                       -535.9133490821536725
  Basis Set: CC-PV(T+D)Z
    Blend: CC-PV(T+D)Z
  Basis Set: (CC-PV(T+D)Z AUX)
    Blend: CC-PVTZ-JKFIT
  @DF-RKS Final Energy:  -535.91335107361999
    Total Energy =                       -535.9133510736199923
  Basis Set: CC-PV(T+D)Z
    Blend: CC-PV(T+D)Z
  Basis Set: (CC-PV(T+D)Z AUX)
    Blend: CC-PVTZ-JKFIT
  @DF-RKS Final Energy:  -535.91335076559972
    Total Energy =                       -535.9133507655997164
  Multiplicity = 1
  Basis Set: CC-PV(T+D)Z
    Blend: CC-PV(T+D)Z
  Basis Set: (CC-PV(T+D)Z AUX)
    Blend: CC-PVTZ-JKFIT
  @DF-RKS Final Energy:  -535.91335257866035
    Total Energy =                       -535.9133525786603514
    Molecular point group: cs

    Geometry (in Angstrom), charge = 0, multiplicity = 1:

       Center              X                  Y                   Z               Mass
    ------------   -----------------  -----------------  -----------------  -----------------
         O            1.100065947818     0.230495943408     0.000000000000    15.994914619570
         H            1.109704808811     1.195862561125     0.000000000000     1.007825032230
         CL          -0.535157654903    -0.139895443630     0.000000000000    34.968852682000

  Charge       = 0
  Multiplicity = 1
  Basis Set: CC-PV(T+D)Z
    Blend: CC-PV(T+D)Z
  Basis Set: (CC-PV(T+D)Z AUX)
    Blend: CC-PVTZ-JKFIT

    Orbital Energies [Eh]
    ---------------------

    Doubly Occupied:

       1Ap  -101.591571     2Ap   -19.285541     3Ap    -9.603985
       4Ap    -7.364387     5Ap    -7.349039     1App   -7.348687
       6Ap    -1.207224     7Ap    -0.924229     8Ap    -0.646726
       9Ap    -0.554437     2App   -0.529178    10Ap    -0.423011
       3App   -0.388122

  @DF-RKS Final Energy:  -535.91335210757575

   => Energetics <=

    Nuclear Repulsion Energy =             51.5544591856879393
    One-Electron Energy =                -841.7118760381890752
    Two-Electron Energy =                 281.8123482418392882
    DFT Exchange-Correlation Energy =     -27.6770004569741843
    Empirical Dispersion Energy =           0.0000000000000000
    VV10 Nonlocal Energy =                  0.1087169600603028
    Total Energy =                       -535.9133521075757471

  Dipole Moment: [D]
     X:    -0.0401      Y:     1.5951      Z:     0.0000     Total:     1.5956

  Vibration                       7                   8                   9
  Freq [cm^-1]                 804.9657           1293.0888           3831.8822
  Irrep                           Ap                  Ap                  Ap
  Reduced mass [u]             17.5344              1.0734              1.0678
  Force const [mDyne/A]         6.6942              1.0575              9.2376

  ==> Thermochemistry Components <==

  Entropy, S
    Electronic S            0.000 [cal/(mol K)]        0.000 [J/(mol K)]       0.00000000 [mEh/K] (multiplicity = 1)
    Translational S        37.767 [cal/(mol K)]      158.018 [J/(mol K)]       0.06018576 [mEh/K] (mol. weight = 51.9716 [u], P = 101325.00 [Pa])
    Rotational S           18.358 [cal/(mol K)]       76.809 [J/(mol K)]       0.02925497 [mEh/K] (symmetry no. = 1)
    Vibrational S           0.231 [cal/(mol K)]        0.968 [J/(mol K)]       0.00036877 [mEh/K]
  Total S                  56.356 [cal/(mol K)]      235.795 [J/(mol K)]       0.08980950 [mEh/K]
  Correction S              0.000 [cal/(mol K)]        0.000 [J/(mol K)]       0.00000000 [mEh/K]

  Constant volume heat capacity, Cv
    Electronic Cv           0.000 [cal/(mol K)]        0.000 [J/(mol K)]       0.00000000 [mEh/K]
    Translational Cv        2.981 [cal/(mol K)]       12.472 [J/(mol K)]       0.00475022 [mEh/K]
    Rotational Cv           2.981 [cal/(mol K)]       12.472 [J/(mol K)]       0.00475022 [mEh/K]
    Vibrational Cv          0.794 [cal/(mol K)]        3.322 [J/(mol K)]       0.00126541 [mEh/K]
  Total Cv                  6.756 [cal/(mol K)]       28.266 [J/(mol K)]       0.01076585 [mEh/K]
  Correction Cv             0.000 [cal/(mol K)]        0.000 [J/(mol K)]       0.00000000 [mEh/K]

  Constant pressure heat capacity, Cp
    Electronic Cp           0.000 [cal/(mol K)]        0.000 [J/(mol K)]       0.00000000 [mEh/K]
    Translational Cp        4.968 [cal/(mol K)]       20.786 [J/(mol K)]       0.00791703 [mEh/K]
    Rotational Cp           2.981 [cal/(mol K)]       12.472 [J/(mol K)]       0.00475022 [mEh/K]
    Vibrational Cp          0.794 [cal/(mol K)]        3.322 [J/(mol K)]       0.00126541 [mEh/K]
  Total Cp                  8.743 [cal/(mol K)]       36.580 [J/(mol K)]       0.01393266 [mEh/K]
  Correction Cp             0.000 [cal/(mol K)]        0.000 [J/(mol K)]       0.00000000 [mEh/K]

  ==> Thermochemistry Energy Analysis <==

  Raw electronic energy, E0
  Total E0, Electronic energy at well bottom at 0 [K]                 -535.91335409 [Eh]

  Zero-point energy, ZPE_vib = Sum_i nu_i / 2
    Electronic ZPE          0.000 [kcal/mol]        0.000 [kJ/mol]       0.00000000 [Eh]
    Translational ZPE       0.000 [kcal/mol]        0.000 [kJ/mol]       0.00000000 [Eh]
    Rotational ZPE          0.000 [kcal/mol]        0.000 [kJ/mol]       0.00000000 [Eh]
    Vibrational ZPE         8.477 [kcal/mol]       35.469 [kJ/mol]       0.01350939 [Eh]        2964.968 [cm^-1]
  Correction ZPE            8.477 [kcal/mol]       35.469 [kJ/mol]       0.01350939 [Eh]        2964.968 [cm^-1]
  Total ZPE, Electronic energy at 0 [K]                               -535.89984470 [Eh]

  Thermal Energy, E (includes ZPE)
    Electronic E            0.000 [kcal/mol]        0.000 [kJ/mol]       0.00000000 [Eh]
    Translational E         0.889 [kcal/mol]        3.718 [kJ/mol]       0.00141628 [Eh]
    Rotational E            0.889 [kcal/mol]        3.718 [kJ/mol]       0.00141628 [Eh]
    Vibrational E           8.533 [kcal/mol]       35.701 [kJ/mol]       0.01359788 [Eh]
  Correction E             10.310 [kcal/mol]       43.138 [kJ/mol]       0.01643044 [Eh]
  Total E, Electronic energy at  298.15 [K]                           -535.89692365 [Eh]

  Enthalpy, H_trans = E_trans + k_B * T
    Electronic H            0.000 [kcal/mol]        0.000 [kJ/mol]       0.00000000 [Eh]
    Translational H         1.481 [kcal/mol]        6.197 [kJ/mol]       0.00236046 [Eh]
    Rotational H            0.889 [kcal/mol]        3.718 [kJ/mol]       0.00141628 [Eh]
    Vibrational H           8.533 [kcal/mol]       35.701 [kJ/mol]       0.01359788 [Eh]
  Correction H             10.903 [kcal/mol]       45.617 [kJ/mol]       0.01737462 [Eh]
  Total H, Enthalpy at  298.15 [K]                                    -535.89597947 [Eh]

  Gibbs free energy, G = H - T * S
    Electronic G            0.000 [kcal/mol]        0.000 [kJ/mol]       0.00000000 [Eh]
    Translational G        -9.779 [kcal/mol]      -40.916 [kJ/mol]      -0.01558392 [Eh]
    Rotational G           -4.585 [kcal/mol]      -19.182 [kJ/mol]      -0.00730609 [Eh]
    Vibrational G           8.464 [kcal/mol]       35.413 [kJ/mol]       0.01348793 [Eh]
  Correction G             -5.900 [kcal/mol]      -24.685 [kJ/mol]      -0.00940208 [Eh]
  Total G, Free enthalpy at  298.15 [K]                               -535.92275617 [Eh]

*** Psi4 exiting successfully. Buy a developer a beer!
