                               Psi4 1.3.2 release

  ==> Input File <==

--------------------------------------------------------------------------
memory 144 GB

molecule {
0 1
N 0.0000000000 0.0000000000 0.0000000000
N 0.0000000000 0.0000000000 1.1003000000
}

set dynamic_level 1
set basis cc-pV(T+d)Z

optimize("wB97X-V")
frequencies("wB97X-V")
--------------------------------------------------------------------------

    Molecular point group: d2h
  Charge       = 0
  Multiplicity = 1
  Basis Set: CC-PV(T+D)Z
    Blend: CC-PV(T+D)Z
  Basis Set: (CC-PV(T+D)Z AUX)
    Blend: CC-PVTZ-JKFIT
  @DF-RKS Final Energy:  -109.53427130241303
    Total Energy =                       -109.5342713024130319
    Molecular point group: d2h
  Basis Set: CC-PV(T+D)Z
    Blend: CC-PV(T+D)Z
  Basis Set: (CC-PV(T+D)Z AUX)
    Blend: CC-PVTZ-JKFIT
  @DF-RKS Final Energy:  -109.53421828584803
    Total Energy =                       -109.5342182858480271
  Basis Set: CC-PV(T+D)Z
    Blend: CC-PV(T+D)Z
  Basis Set: (CC-PV(T+D)Z AUX)
    Blend: CC-PVTZ-JKFIT
  @DF-RKS Final Energy:  -109.53431879819263
    Total Energy =                       -109.5343187981926292
  Basis Set: CC-PV(T+D)Z
    Blend: CC-PV(T+D)Z
  Basis Set: (CC-PV(T+D)Z AUX)
    Blend: CC-PVTZ-JKFIT
  @DF-RKS Final Energy:  -109.53449330305683
    Total Energy =                       -109.5344933030568484
  @DF-RKS Final Energy:  -109.53448540771096
    Total Energy =                       -109.5344854077109602
  @DF-RKS Final Energy:  -109.53449536360084
    Total Energy =                       -109.5344953636008398
  @DF-RKS Final Energy:  -109.53449542613492
    Total Energy =                       -109.5344954261349244
  @DF-RKS Final Energy:  -109.53449264535358
    Total Energy =                       -109.5344926453535805
  @DF-RKS Final Energy:  -109.53449233655229
    Total Energy =                       -109.5344923365522760
  **** Optimization is complete! (in 3 steps) ****
    Final optimized geometry and variables:
  @DF-RKS Final Energy:  -109.53449542613487
    Total Energy =                       -109.5344954261348676
  @DF-RKS Final Energy:  -109.53449264535361
    Total Energy =                       -109.5344926453536232
  Basis Set: CC-PV(T+D)Z
    Blend: CC-PV(T+D)Z
  Basis Set: (CC-PV(T+D)Z AUX)
    Blend: CC-PVTZ-JKFIT
  @DF-RKS Final Energy:  -109.53449233655235
    Total Energy =                       -109.5344923365523471
  Basis Set: CC-PV(T+D)Z
    Blend: CC-PV(T+D)Z
  Basis Set: (CC-PV(T+D)Z AUX)
    Blend: CC-PVTZ-JKFIT
  @DF-RKS Final Energy:  -109.53449542613494
    Total Energy =                       -109.5344954261349386
  Multiplicity = 1
  Basis Set: CC-PV(T+D)Z
    Blend: CC-PV(T+D)Z
  Basis Set: (CC-PV(T+D)Z AUX)
    Blend: CC-PVTZ-JKFIT
  @DF-RKS Final Energy:  -109.53449264535368
    Total Energy =                       -109.5344926453536800
    Molecular point group: d2h

    Geometry (in Angstrom), charge = 0, multiplicity = 1:

       Center              X                  Y                   Z               Mass
    ------------   -----------------  -----------------  -----------------  -----------------
         N            0.000000000000     0.000000000000    -0.545223670159    14.003074004430
         N            0.000000000000     0.000000000000     0.545223670159    14.003074004430

  Charge       = 0
  Multiplicity = 1
  Basis Set: CC-PV(T+D)Z
    Blend: CC-PV(T+D)Z
  Basis Set: (CC-PV(T+D)Z AUX)
    Blend: CC-PVTZ-JKFIT

    Orbital Energies [Eh]
    ---------------------

    Doubly Occupied:

       1Ag   -14.508801     1B1u  -14.506975     2Ag    -1.257205
       2B1u   -0.668993     1B3u   -0.577316     1B2u   -0.577316
       3Ag    -0.542651

  @DF-RKS Final Energy:  -109.53449233655232

   => Energetics <=

    Nuclear Repulsion Energy =             23.7789413244462011
    One-Electron Energy =                -194.8315506419197902
    Two-Electron Energy =                  71.1538318353695161
    DFT Exchange-Correlation Energy =      -9.6946722917455865
    Empirical Dispersion Energy =           0.0000000000000000
    VV10 Nonlocal Energy =                  0.0589574372973335
    Total Energy =                       -109.5344923365523186

  Dipole Moment: [D]
     X:     0.0000      Y:     0.0000      Z:    -0.0000     Total:     0.0000

  Vibration                       6
  Freq [cm^-1]                2490.9602
  Irrep                           Ag
  Reduced mass [u]             14.0031
  Force const [mDyne/A]        51.1926

  ==> Thermochemistry Components <==

  Entropy, S
    Electronic S            0.000 [cal/(mol K)]        0.000 [J/(mol K)]       0.00000000 [mEh/K] (multiplicity = 1)
    Translational S        35.924 [cal/(mol K)]      150.307 [J/(mol K)]       0.05724883 [mEh/K] (mol. weight = 28.0061 [u], P = 101325.00 [Pa])
    Rotational S            9.811 [cal/(mol K)]       41.048 [J/(mol K)]       0.01563452 [mEh/K] (symmetry no. = 2)
    Vibrational S           0.000 [cal/(mol K)]        0.001 [J/(mol K)]       0.00000025 [mEh/K]
  Total S                  45.735 [cal/(mol K)]      191.356 [J/(mol K)]       0.07288359 [mEh/K]
  Correction S              0.000 [cal/(mol K)]        0.000 [J/(mol K)]       0.00000000 [mEh/K]

  Constant volume heat capacity, Cv
    Electronic Cv           0.000 [cal/(mol K)]        0.000 [J/(mol K)]       0.00000000 [mEh/K]
    Translational Cv        2.981 [cal/(mol K)]       12.472 [J/(mol K)]       0.00475022 [mEh/K]
    Rotational Cv           1.987 [cal/(mol K)]        8.314 [J/(mol K)]       0.00316681 [mEh/K]
    Vibrational Cv          0.002 [cal/(mol K)]        0.007 [J/(mol K)]       0.00000275 [mEh/K]
  Total Cv                  4.970 [cal/(mol K)]       20.793 [J/(mol K)]       0.00791978 [mEh/K]
  Correction Cv             0.000 [cal/(mol K)]        0.000 [J/(mol K)]       0.00000000 [mEh/K]

  Constant pressure heat capacity, Cp
    Electronic Cp           0.000 [cal/(mol K)]        0.000 [J/(mol K)]       0.00000000 [mEh/K]
    Translational Cp        4.968 [cal/(mol K)]       20.786 [J/(mol K)]       0.00791703 [mEh/K]
    Rotational Cp           1.987 [cal/(mol K)]        8.314 [J/(mol K)]       0.00316681 [mEh/K]
    Vibrational Cp          0.002 [cal/(mol K)]        0.007 [J/(mol K)]       0.00000275 [mEh/K]
  Total Cp                  6.957 [cal/(mol K)]       29.108 [J/(mol K)]       0.01108659 [mEh/K]
  Correction Cp             0.000 [cal/(mol K)]        0.000 [J/(mol K)]       0.00000000 [mEh/K]

  ==> Thermochemistry Energy Analysis <==

  Raw electronic energy, E0
  Total E0, Electronic energy at well bottom at 0 [K]                 -109.53449543 [Eh]

  Zero-point energy, ZPE_vib = Sum_i nu_i / 2
    Electronic ZPE          0.000 [kcal/mol]        0.000 [kJ/mol]       0.00000000 [Eh]
    Translational ZPE       0.000 [kcal/mol]        0.000 [kJ/mol]       0.00000000 [Eh]
    Rotational ZPE          0.000 [kcal/mol]        0.000 [kJ/mol]       0.00000000 [Eh]
    Vibrational ZPE         3.561 [kcal/mol]       14.899 [kJ/mol]       0.00567482 [Eh]        1245.480 [cm^-1]
  Correction ZPE            3.561 [kcal/mol]       14.899 [kJ/mol]       0.00567482 [Eh]        1245.480 [cm^-1]
  Total ZPE, Electronic energy at 0 [K]                               -109.52882060 [Eh]

  Thermal Energy, E (includes ZPE)
    Electronic E            0.000 [kcal/mol]        0.000 [kJ/mol]       0.00000000 [Eh]
    Translational E         0.889 [kcal/mol]        3.718 [kJ/mol]       0.00141628 [Eh]
    Rotational E            0.592 [kcal/mol]        2.479 [kJ/mol]       0.00094418 [Eh]
    Vibrational E           3.561 [kcal/mol]       14.899 [kJ/mol]       0.00567489 [Eh]
  Correction E              5.042 [kcal/mol]       21.097 [kJ/mol]       0.00803535 [Eh]
  Total E, Electronic energy at  298.15 [K]                           -109.52646007 [Eh]

  Enthalpy, H_trans = E_trans + k_B * T
    Electronic H            0.000 [kcal/mol]        0.000 [kJ/mol]       0.00000000 [Eh]
    Translational H         1.481 [kcal/mol]        6.197 [kJ/mol]       0.00236046 [Eh]
    Rotational H            0.592 [kcal/mol]        2.479 [kJ/mol]       0.00094418 [Eh]
    Vibrational H           3.561 [kcal/mol]       14.899 [kJ/mol]       0.00567489 [Eh]
  Correction H              5.635 [kcal/mol]       23.576 [kJ/mol]       0.00897954 [Eh]
  Total H, Enthalpy at  298.15 [K]                                    -109.52551589 [Eh]

  Gibbs free energy, G = H - T * S
    Electronic G            0.000 [kcal/mol]        0.000 [kJ/mol]       0.00000000 [Eh]
    Translational G        -9.230 [kcal/mol]      -38.617 [kJ/mol]      -0.01470828 [Eh]
    Rotational G           -2.333 [kcal/mol]       -9.760 [kJ/mol]      -0.00371725 [Eh]
    Vibrational G           3.561 [kcal/mol]       14.899 [kJ/mol]       0.00567482 [Eh]
  Correction G             -8.001 [kcal/mol]      -33.477 [kJ/mol]      -0.01275070 [Eh]
  Total G, Free enthalpy at  298.15 [K]                               -109.54724613 [Eh]

*** Psi4 exiting successfully. Buy a developer a beer!
