                               Psi4 1.3.2 release

  ==> Input File <==

--------------------------------------------------------------------------
memory 144 GB

molecule {
0 1
N 0.0000000000 0.0000000000 0.0000000000
H 0.0000000000 0.0000000000 1.0124000000
H 0.9722998620 0.0000000000 -0.2821112163
H -0.3756003142 0.8968229622 -0.2821112163
}

set dynamic_level 1
set basis cc-pV(T+d)Z

optimize("wB97X-V")
frequencies("wB97X-V")
--------------------------------------------------------------------------

    Molecular point group: cs
  Charge       = 0
  Multiplicity = 1
  Basis Set: CC-PV(T+D)Z
    Blend: CC-PV(T+D)Z
  Basis Set: (CC-PV(T+D)Z AUX)
    Blend: CC-PVTZ-JKFIT
  @DF-RKS Final Energy:   -56.55860432428789
    Total Energy =                        -56.5586043242878986
    Molecular point group: cs
  Basis Set: CC-PV(T+D)Z
    Blend: CC-PV(T+D)Z
  Basis Set: (CC-PV(T+D)Z AUX)
    Blend: CC-PVTZ-JKFIT
  @DF-RKS Final Energy:   -56.55860190797365
    Total Energy =                        -56.5586019079736460
  Basis Set: CC-PV(T+D)Z
    Blend: CC-PV(T+D)Z
  Basis Set: (CC-PV(T+D)Z AUX)
    Blend: CC-PVTZ-JKFIT
  @DF-RKS Final Energy:   -56.55860121035268
    Total Energy =                        -56.5586012103526841
  Basis Set: CC-PV(T+D)Z
    Blend: CC-PV(T+D)Z
  Basis Set: (CC-PV(T+D)Z AUX)
    Blend: CC-PVTZ-JKFIT
  @DF-RKS Final Energy:   -56.55860207056237
    Total Energy =                        -56.5586020705623724
  @DF-RKS Final Energy:   -56.55860140149409
    Total Energy =                        -56.5586014014940872
  @DF-RKS Final Energy:   -56.55859055763916
    Total Energy =                        -56.5585905576391639
  @DF-RKS Final Energy:   -56.55860943640292
    Total Energy =                        -56.5586094364029179
  @DF-RKS Final Energy:   -56.55859055051376
    Total Energy =                        -56.5585905505137703
  @DF-RKS Final Energy:   -56.55860944323410
    Total Energy =                        -56.5586094432340971
  @DF-RKS Final Energy:   -56.55861828293271
    Total Energy =                        -56.5586182829327129
  @DF-RKS Final Energy:   -56.55861447046163
    Total Energy =                        -56.5586144704616274
  @DF-RKS Final Energy:   -56.55861662682937
    Total Energy =                        -56.5586166268293695
  @DF-RKS Final Energy:   -56.55861458639837
    Total Energy =                        -56.5586145863983702
  @DF-RKS Final Energy:   -56.55861688313064
    Total Energy =                        -56.5586168831306324
  @DF-RKS Final Energy:   -56.55861594579622
    Total Energy =                        -56.5586159457962196
  @DF-RKS Final Energy:   -56.55861202765254
    Total Energy =                        -56.5586120276525364
  @DF-RKS Final Energy:   -56.55861594702965
    Total Energy =                        -56.5586159470296508
  @DF-RKS Final Energy:   -56.55861202648365
    Total Energy =                        -56.5586120264836580
  @DF-RKS Final Energy:   -56.55861879307793
    Total Energy =                        -56.5586187930779261
  @DF-RKS Final Energy:   -56.55861570507172
    Total Energy =                        -56.5586157050717091
  **** Optimization is complete! (in 3 steps) ****
    Final optimized geometry and variables:
  @DF-RKS Final Energy:   -56.55861488862742
    Total Energy =                        -56.5586148886274032
  @DF-RKS Final Energy:   -56.55861408792239
    Total Energy =                        -56.5586140879223933
  @DF-RKS Final Energy:   -56.55861488880732
    Total Energy =                        -56.5586148888073197
  @DF-RKS Final Energy:   -56.55861408767043
    Total Energy =                        -56.5586140876704278
  @DF-RKS Final Energy:   -56.55861726588650
    Total Energy =                        -56.5586172658865038
  @DF-RKS Final Energy:   -56.55861579400467
    Total Energy =                        -56.5586157940046732
  @DF-RKS Final Energy:   -56.55861085317729
    Total Energy =                        -56.5586108531772993
  @DF-RKS Final Energy:   -56.55861090741737
    Total Energy =                        -56.5586109074173748
  @DF-RKS Final Energy:   -56.55861595157090
    Total Energy =                        -56.5586159515709070
  @DF-RKS Final Energy:   -56.55861602602844
    Total Energy =                        -56.5586160260284387
  @DF-RKS Final Energy:   -56.55861578638179
    Total Energy =                        -56.5586157863817931
  @DF-RKS Final Energy:   -56.55861590807836
    Total Energy =                        -56.5586159080783588
  @DF-RKS Final Energy:   -56.55861129194494
    Total Energy =                        -56.5586112919449491
  @DF-RKS Final Energy:   -56.55861134806936
    Total Energy =                        -56.5586113480693697
  @DF-RKS Final Energy:   -56.55860756969315
    Total Energy =                        -56.5586075696931516
  @DF-RKS Final Energy:   -56.55860914011849
    Total Energy =                        -56.5586091401184916
  Basis Set: CC-PV(T+D)Z
    Blend: CC-PV(T+D)Z
  Basis Set: (CC-PV(T+D)Z AUX)
    Blend: CC-PVTZ-JKFIT
  @DF-RKS Final Energy:   -56.55861463013549
    Total Energy =                        -56.5586146301354802
  Basis Set: CC-PV(T+D)Z
    Blend: CC-PV(T+D)Z
  Basis Set: (CC-PV(T+D)Z AUX)
    Blend: CC-PVTZ-JKFIT
  @DF-RKS Final Energy:   -56.55861600161414
    Total Energy =                        -56.5586160016141406
  Multiplicity = 1
  Basis Set: CC-PV(T+D)Z
    Blend: CC-PV(T+D)Z
  Basis Set: (CC-PV(T+D)Z AUX)
    Blend: CC-PVTZ-JKFIT
  @DF-RKS Final Energy:   -56.55861666131320
    Total Energy =                        -56.5586166613131951
    Molecular point group: c1

    Geometry (in Angstrom), charge = 0, multiplicity = 1:

       Center              X                  Y                   Z               Mass
    ------------   -----------------  -----------------  -----------------  -----------------
         N           -0.043622906400    -0.052421641698    -0.000263805161    14.003074004430
         H            0.562152847320    -0.055743928627     0.812929460828     1.007825032230
         H            0.563070516666    -0.058761582367    -0.812007525451     1.007825032230
         H           -0.519111422856     0.842870162257     0.002743465930     1.007825032230

  Charge       = 0
  Multiplicity = 1
  Basis Set: CC-PV(T+D)Z
    Blend: CC-PV(T+D)Z
  Basis Set: (CC-PV(T+D)Z AUX)
    Blend: CC-PVTZ-JKFIT

    Orbital Energies [Eh]
    ---------------------

    Doubly Occupied:

       1A    -14.380340     2A     -0.976266     3A     -0.565394
       4A     -0.564232     5A     -0.371305

  @DF-RKS Final Energy:   -56.55861666129624

   => Energetics <=

    Nuclear Repulsion Energy =             11.9391814305651991
    One-Electron Energy =                 -99.6830930720476260
    Two-Electron Energy =                  36.6136757565511317
    DFT Exchange-Correlation Energy =      -5.4702483278690437
    Empirical Dispersion Energy =           0.0000000000000000
    VV10 Nonlocal Energy =                  0.0418675515040951
    Total Energy =                        -56.5586166612962415

  Dipole Moment: [D]
     X:     1.0280      Y:     1.2354      Z:     0.0025     Total:     1.6072

  Vibration                       7                   8                   9
  Freq [cm^-1]                1064.6217           1432.1845           1679.6203
  Irrep                           Ap                 App                  Ap
  Reduced mass [u]              1.1805              1.0574              1.0658
  Force const [mDyne/A]         0.7883              1.2779              1.7716

  Vibration                       10                  11                  12
  Freq [cm^-1]                3505.0769           3556.7292           3624.8680
  Irrep                           Ap                 App                  Ap
  Reduced mass [u]              1.0268              1.0982              1.0893
  Force const [mDyne/A]         7.4327              8.1850              8.4328

  ==> Thermochemistry Components <==

  Entropy, S
    Electronic S            0.000 [cal/(mol K)]        0.000 [J/(mol K)]       0.00000000 [mEh/K] (multiplicity = 1)
    Translational S        34.441 [cal/(mol K)]      144.100 [J/(mol K)]       0.05488488 [mEh/K] (mol. weight = 17.0265 [u], P = 101325.00 [Pa])
    Rotational S           13.621 [cal/(mol K)]       56.990 [J/(mol K)]       0.02170622 [mEh/K] (symmetry no. = 1)
    Vibrational S           0.093 [cal/(mol K)]        0.390 [J/(mol K)]       0.00014846 [mEh/K]
  Total S                  48.155 [cal/(mol K)]      201.480 [J/(mol K)]       0.07673956 [mEh/K]
  Correction S              0.000 [cal/(mol K)]        0.000 [J/(mol K)]       0.00000000 [mEh/K]

  Constant volume heat capacity, Cv
    Electronic Cv           0.000 [cal/(mol K)]        0.000 [J/(mol K)]       0.00000000 [mEh/K]
    Translational Cv        2.981 [cal/(mol K)]       12.472 [J/(mol K)]       0.00475022 [mEh/K]
    Rotational Cv           2.981 [cal/(mol K)]       12.472 [J/(mol K)]       0.00475022 [mEh/K]
    Vibrational Cv          0.446 [cal/(mol K)]        1.866 [J/(mol K)]       0.00071063 [mEh/K]
  Total Cv                  6.408 [cal/(mol K)]       26.809 [J/(mol K)]       0.01021106 [mEh/K]
  Correction Cv             0.000 [cal/(mol K)]        0.000 [J/(mol K)]       0.00000000 [mEh/K]

  Constant pressure heat capacity, Cp
    Electronic Cp           0.000 [cal/(mol K)]        0.000 [J/(mol K)]       0.00000000 [mEh/K]
    Translational Cp        4.968 [cal/(mol K)]       20.786 [J/(mol K)]       0.00791703 [mEh/K]
    Rotational Cp           2.981 [cal/(mol K)]       12.472 [J/(mol K)]       0.00475022 [mEh/K]
    Vibrational Cp          0.446 [cal/(mol K)]        1.866 [J/(mol K)]       0.00071063 [mEh/K]
  Total Cp                  8.395 [cal/(mol K)]       35.124 [J/(mol K)]       0.01337787 [mEh/K]
  Correction Cp             0.000 [cal/(mol K)]        0.000 [J/(mol K)]       0.00000000 [mEh/K]

  ==> Thermochemistry Energy Analysis <==

  Raw electronic energy, E0
  Total E0, Electronic energy at well bottom at 0 [K]                  -56.55861879 [Eh]

  Zero-point energy, ZPE_vib = Sum_i nu_i / 2
    Electronic ZPE          0.000 [kcal/mol]        0.000 [kJ/mol]       0.00000000 [Eh]
    Translational ZPE       0.000 [kcal/mol]        0.000 [kJ/mol]       0.00000000 [Eh]
    Rotational ZPE          0.000 [kcal/mol]        0.000 [kJ/mol]       0.00000000 [Eh]
    Vibrational ZPE        21.248 [kcal/mol]       88.901 [kJ/mol]       0.03386063 [Eh]        7431.550 [cm^-1]
  Correction ZPE           21.248 [kcal/mol]       88.901 [kJ/mol]       0.03386063 [Eh]        7431.550 [cm^-1]
  Total ZPE, Electronic energy at 0 [K]                                -56.52475816 [Eh]

  Thermal Energy, E (includes ZPE)
    Electronic E            0.000 [kcal/mol]        0.000 [kJ/mol]       0.00000000 [Eh]
    Translational E         0.889 [kcal/mol]        3.718 [kJ/mol]       0.00141628 [Eh]
    Rotational E            0.889 [kcal/mol]        3.718 [kJ/mol]       0.00141628 [Eh]
    Vibrational E          21.271 [kcal/mol]       88.999 [kJ/mol]       0.03389811 [Eh]
  Correction E             23.049 [kcal/mol]       96.436 [kJ/mol]       0.03673066 [Eh]
  Total E, Electronic energy at  298.15 [K]                            -56.52188813 [Eh]

  Enthalpy, H_trans = E_trans + k_B * T
    Electronic H            0.000 [kcal/mol]        0.000 [kJ/mol]       0.00000000 [Eh]
    Translational H         1.481 [kcal/mol]        6.197 [kJ/mol]       0.00236046 [Eh]
    Rotational H            0.889 [kcal/mol]        3.718 [kJ/mol]       0.00141628 [Eh]
    Vibrational H          21.271 [kcal/mol]       88.999 [kJ/mol]       0.03389811 [Eh]
  Correction H             23.641 [kcal/mol]       98.915 [kJ/mol]       0.03767485 [Eh]
  Total H, Enthalpy at  298.15 [K]                                     -56.52094395 [Eh]

  Gibbs free energy, G = H - T * S
    Electronic G            0.000 [kcal/mol]        0.000 [kJ/mol]       0.00000000 [Eh]
    Translational G        -8.787 [kcal/mol]      -36.766 [kJ/mol]      -0.01400347 [Eh]
    Rotational G           -3.172 [kcal/mol]      -13.273 [kJ/mol]      -0.00505543 [Eh]
    Vibrational G          21.244 [kcal/mol]       88.883 [kJ/mol]       0.03385385 [Eh]
  Correction G              9.284 [kcal/mol]       38.844 [kJ/mol]       0.01479495 [Eh]
  Total G, Free enthalpy at  298.15 [K]                                -56.54382384 [Eh]

*** Psi4 exiting successfully. Buy a developer a beer!
