                               Psi4 1.3.2 release

  ==> Input File <==

--------------------------------------------------------------------------
memory 144 GB

molecule {
0 1
N 0.0000000000 0.0000000000 0.0000000000
N 0.0000000000 0.0000000000 1.1291000000
O 0.0000000000 -0.0000000000 2.3161000000
}

set dynamic_level 1
set basis cc-pV(T+d)Z

optimize("wB97X-V")
frequencies("wB97X-V")
--------------------------------------------------------------------------

    Molecular point group: c2v
  Charge       = 0
  Multiplicity = 1
  Basis Set: CC-PV(T+D)Z
    Blend: CC-PV(T+D)Z
  Basis Set: (CC-PV(T+D)Z AUX)
    Blend: CC-PVTZ-JKFIT
  @DF-RKS Final Energy:  -184.66923332772538
    Total Energy =                       -184.6692333277253795
    Molecular point group: c2v
  Basis Set: CC-PV(T+D)Z
    Blend: CC-PV(T+D)Z
  Basis Set: (CC-PV(T+D)Z AUX)
    Blend: CC-PVTZ-JKFIT
  @DF-RKS Final Energy:  -184.66918252760161
    Total Energy =                       -184.6691825276016061
  Basis Set: CC-PV(T+D)Z
    Blend: CC-PV(T+D)Z
  Basis Set: (CC-PV(T+D)Z AUX)
    Blend: CC-PVTZ-JKFIT
  @DF-RKS Final Energy:  -184.66928087851281
    Total Energy =                       -184.6692808785128079
  Basis Set: CC-PV(T+D)Z
    Blend: CC-PV(T+D)Z
  Basis Set: (CC-PV(T+D)Z AUX)
    Blend: CC-PVTZ-JKFIT
  @DF-RKS Final Energy:  -184.66924118316558
    Total Energy =                       -184.6692411831655818
  @DF-RKS Final Energy:  -184.66922200554896
    Total Energy =                       -184.6692220055489884
  @DF-RKS Final Energy:  -184.66963877857324
    Total Energy =                       -184.6696387785732441
  @DF-RKS Final Energy:  -184.66963149497329
    Total Energy =                       -184.6696314949732596
  @DF-RKS Final Energy:  -184.66964254586847
    Total Energy =                       -184.6696425458684416
  @DF-RKS Final Energy:  -184.66963788894094
    Total Energy =                       -184.6696378889409687
  @DF-RKS Final Energy:  -184.66963599189410
    Total Energy =                       -184.6696359918940971
  @DF-RKS Final Energy:  -184.66964381350175
    Total Energy =                       -184.6696438135017502
  @DF-RKS Final Energy:  -184.66964229629741
    Total Energy =                       -184.6696422962974111
  @DF-RKS Final Energy:  -184.66964178294543
    Total Energy =                       -184.6696417829454333
  @DF-RKS Final Energy:  -184.66964182006782
    Total Energy =                       -184.6696418200678522
  @DF-RKS Final Energy:  -184.66964210505338
    Total Energy =                       -184.6696421050533843
  **** Optimization is complete! (in 3 steps) ****
    Final optimized geometry and variables:
  @DF-RKS Final Energy:  -184.66964381350536
    Total Energy =                       -184.6696438135053313
  @DF-RKS Final Energy:  -184.66964229629747
    Total Energy =                       -184.6696422962974680
  @DF-RKS Final Energy:  -184.66964178264246
    Total Energy =                       -184.6696417826424579
  @DF-RKS Final Energy:  -184.66964181980319
    Total Energy =                       -184.6696418198031893
  @DF-RKS Final Energy:  -184.66964210484181
    Total Energy =                       -184.6696421048417847
  @DF-RKS Final Energy:  -184.66964381350516
    Total Energy =                       -184.6696438135051608
  @DF-RKS Final Energy:  -184.66964229629752
    Total Energy =                       -184.6696422962975248
  @DF-RKS Final Energy:  -184.66964178264260
    Total Energy =                       -184.6696417826425716
  @DF-RKS Final Energy:  -184.66964181980333
    Total Energy =                       -184.6696418198033314
  @DF-RKS Final Energy:  -184.66964210484187
    Total Energy =                       -184.6696421048418983
  Basis Set: CC-PV(T+D)Z
    Blend: CC-PV(T+D)Z
  Basis Set: (CC-PV(T+D)Z AUX)
    Blend: CC-PVTZ-JKFIT
  @DF-RKS Final Energy:  -184.66964194181847
    Total Energy =                       -184.6696419418184689
  Basis Set: CC-PV(T+D)Z
    Blend: CC-PV(T+D)Z
  Basis Set: (CC-PV(T+D)Z AUX)
    Blend: CC-PVTZ-JKFIT
  @DF-RKS Final Energy:  -184.66964216708845
    Total Energy =                       -184.6696421670884547
  Multiplicity = 1
  Basis Set: CC-PV(T+D)Z
    Blend: CC-PV(T+D)Z
  Basis Set: (CC-PV(T+D)Z AUX)
    Blend: CC-PVTZ-JKFIT
  @DF-RKS Final Energy:  -184.66964362240068
    Total Energy =                       -184.6696436224006845
    Molecular point group: cs

    Geometry (in Angstrom), charge = 0, multiplicity = 1:

       Center              X                  Y                   Z               Mass
    ------------   -----------------  -----------------  -----------------  -----------------
         N            0.000000000000    -0.000299617561    -1.190906977684    14.003074004430
         N            0.000000000000     0.000582985737    -0.073852012626    14.003074004430
         O            0.000000000000    -0.000248080446     1.107259035782    15.994914619570

  Charge       = 0
  Multiplicity = 1
  Basis Set: CC-PV(T+D)Z
    Blend: CC-PV(T+D)Z
  Basis Set: (CC-PV(T+D)Z AUX)
    Blend: CC-PVTZ-JKFIT

    Orbital Energies [Eh]
    ---------------------

    Doubly Occupied:

       1Ap   -19.309200     2Ap   -14.645839     3Ap   -14.508083
       4Ap    -1.382251     5Ap    -1.221873     6Ap    -0.719349
       1App   -0.688622     7Ap    -0.688622     8Ap    -0.593807
       2App   -0.444132     9Ap    -0.444132

  @DF-RKS Final Energy:  -184.66964362164802

   => Energetics <=

    Nuclear Repulsion Energy =             61.1969943980486875
    One-Electron Energy =                -371.7788558445694775
    Two-Electron Energy =                 141.6799368779886947
    DFT Exchange-Correlation Energy =     -15.8589573111005073
    Empirical Dispersion Energy =           0.0000000000000000
    VV10 Nonlocal Energy =                  0.0912382579845945
    Total Energy =                       -184.6696436216480208

  Dipole Moment: [D]
     X:     0.0000      Y:     0.0012      Z:    -0.1391     Total:     0.1391

  Vibration                       6                   7                   8
  Freq [cm^-1]                 635.6012            636.8516           1362.9399
  Irrep                           B1                  B2                  A1
  Reduced mass [u]             14.2526             14.2526             15.1202
  Force const [mDyne/A]         3.3925              3.4058             16.5486

  Vibration                       9
  Freq [cm^-1]                2409.5624
  Irrep                           A1
  Reduced mass [u]             14.0788
  Force const [mDyne/A]        48.1605

  ==> Thermochemistry Components <==

  Entropy, S
    Electronic S            0.000 [cal/(mol K)]        0.000 [J/(mol K)]       0.00000000 [mEh/K] (multiplicity = 1)
    Translational S        37.271 [cal/(mol K)]      155.941 [J/(mol K)]       0.05939493 [mEh/K] (mol. weight = 44.0011 [u], P = 101325.00 [Pa])
    Rotational S           14.281 [cal/(mol K)]       59.752 [J/(mol K)]       0.02275821 [mEh/K] (symmetry no. = 1)
    Vibrational S           0.804 [cal/(mol K)]        3.364 [J/(mol K)]       0.00128120 [mEh/K]
  Total S                  52.356 [cal/(mol K)]      219.057 [J/(mol K)]       0.08343433 [mEh/K]
  Correction S              0.000 [cal/(mol K)]        0.000 [J/(mol K)]       0.00000000 [mEh/K]

  Constant volume heat capacity, Cv
    Electronic Cv           0.000 [cal/(mol K)]        0.000 [J/(mol K)]       0.00000000 [mEh/K]
    Translational Cv        2.981 [cal/(mol K)]       12.472 [J/(mol K)]       0.00475022 [mEh/K]
    Rotational Cv           1.987 [cal/(mol K)]        8.314 [J/(mol K)]       0.00316681 [mEh/K]
    Vibrational Cv          2.034 [cal/(mol K)]        8.512 [J/(mol K)]       0.00324213 [mEh/K]
  Total Cv                  7.002 [cal/(mol K)]       29.298 [J/(mol K)]       0.01115916 [mEh/K]
  Correction Cv             0.000 [cal/(mol K)]        0.000 [J/(mol K)]       0.00000000 [mEh/K]

  Constant pressure heat capacity, Cp
    Electronic Cp           0.000 [cal/(mol K)]        0.000 [J/(mol K)]       0.00000000 [mEh/K]
    Translational Cp        4.968 [cal/(mol K)]       20.786 [J/(mol K)]       0.00791703 [mEh/K]
    Rotational Cp           1.987 [cal/(mol K)]        8.314 [J/(mol K)]       0.00316681 [mEh/K]
    Vibrational Cp          2.034 [cal/(mol K)]        8.512 [J/(mol K)]       0.00324213 [mEh/K]
  Total Cp                  8.990 [cal/(mol K)]       37.613 [J/(mol K)]       0.01432597 [mEh/K]
  Correction Cp             0.000 [cal/(mol K)]        0.000 [J/(mol K)]       0.00000000 [mEh/K]

  ==> Thermochemistry Energy Analysis <==

  Raw electronic energy, E0
  Total E0, Electronic energy at well bottom at 0 [K]                 -184.66964381 [Eh]

  Zero-point energy, ZPE_vib = Sum_i nu_i / 2
    Electronic ZPE          0.000 [kcal/mol]        0.000 [kJ/mol]       0.00000000 [Eh]
    Translational ZPE       0.000 [kcal/mol]        0.000 [kJ/mol]       0.00000000 [Eh]
    Rotational ZPE          0.000 [kcal/mol]        0.000 [kJ/mol]       0.00000000 [Eh]
    Vibrational ZPE         7.212 [kcal/mol]       30.176 [kJ/mol]       0.01149325 [Eh]        2522.478 [cm^-1]
  Correction ZPE            7.212 [kcal/mol]       30.176 [kJ/mol]       0.01149325 [Eh]        2522.478 [cm^-1]
  Total ZPE, Electronic energy at 0 [K]                               -184.65815056 [Eh]

  Thermal Energy, E (includes ZPE)
    Electronic E            0.000 [kcal/mol]        0.000 [kJ/mol]       0.00000000 [Eh]
    Translational E         0.889 [kcal/mol]        3.718 [kJ/mol]       0.00141628 [Eh]
    Rotational E            0.592 [kcal/mol]        2.479 [kJ/mol]       0.00094418 [Eh]
    Vibrational E           7.395 [kcal/mol]       30.939 [kJ/mol]       0.01178418 [Eh]
  Correction E              8.876 [kcal/mol]       37.137 [kJ/mol]       0.01414464 [Eh]
  Total E, Electronic energy at  298.15 [K]                           -184.65549917 [Eh]

  Enthalpy, H_trans = E_trans + k_B * T
    Electronic H            0.000 [kcal/mol]        0.000 [kJ/mol]       0.00000000 [Eh]
    Translational H         1.481 [kcal/mol]        6.197 [kJ/mol]       0.00236046 [Eh]
    Rotational H            0.592 [kcal/mol]        2.479 [kJ/mol]       0.00094418 [Eh]
    Vibrational H           7.395 [kcal/mol]       30.939 [kJ/mol]       0.01178418 [Eh]
  Correction H              9.468 [kcal/mol]       39.616 [kJ/mol]       0.01508883 [Eh]
  Total H, Enthalpy at  298.15 [K]                                    -184.65455499 [Eh]

  Gibbs free energy, G = H - T * S
    Electronic G            0.000 [kcal/mol]        0.000 [kJ/mol]       0.00000000 [Eh]
    Translational G        -9.631 [kcal/mol]      -40.297 [kJ/mol]      -0.01534814 [Eh]
    Rotational G           -3.665 [kcal/mol]      -15.336 [kJ/mol]      -0.00584118 [Eh]
    Vibrational G           7.155 [kcal/mol]       29.936 [kJ/mol]       0.01140219 [Eh]
  Correction G             -6.142 [kcal/mol]      -25.696 [kJ/mol]      -0.00978712 [Eh]
  Total G, Free enthalpy at  298.15 [K]                               -184.67943094 [Eh]

*** Psi4 exiting successfully. Buy a developer a beer!
