                               Psi4 1.3.2 release

  ==> Input File <==

--------------------------------------------------------------------------
memory 144 GB

molecule {
0 1
O 0.0000000000 0.0000000000 0.0000000000
C 0.0000000000 0.0000000000 1.1584320400
S 0.0000000000 0.0000000000 2.7252829900
}

set dynamic_level 1
set basis cc-pV(T+d)Z

optimize("wB97X-V")
frequencies("wB97X-V")
--------------------------------------------------------------------------

    Molecular point group: c2v
  Charge       = 0
  Multiplicity = 1
  Basis Set: CC-PV(T+D)Z
    Blend: CC-PV(T+D)Z
  Basis Set: (CC-PV(T+D)Z AUX)
    Blend: CC-PVTZ-JKFIT
  @DF-RKS Final Energy:  -511.49798177976959
    Total Energy =                       -511.4979817797695887
    Molecular point group: c2v
  Basis Set: CC-PV(T+D)Z
    Blend: CC-PV(T+D)Z
  Basis Set: (CC-PV(T+D)Z AUX)
    Blend: CC-PVTZ-JKFIT
  @DF-RKS Final Energy:  -511.49796262365783
    Total Energy =                       -511.4979626236578838
  Basis Set: CC-PV(T+D)Z
    Blend: CC-PV(T+D)Z
  Basis Set: (CC-PV(T+D)Z AUX)
    Blend: CC-PVTZ-JKFIT
  @DF-RKS Final Energy:  -511.49799865669576
    Total Energy =                       -511.4979986566958132
  Basis Set: CC-PV(T+D)Z
    Blend: CC-PV(T+D)Z
  Basis Set: (CC-PV(T+D)Z AUX)
    Blend: CC-PVTZ-JKFIT
  @DF-RKS Final Energy:  -511.49798441143969
    Total Energy =                       -511.4979844114396883
  @DF-RKS Final Energy:  -511.49797646429619
    Total Energy =                       -511.4979764642961868
  @DF-RKS Final Energy:  -511.49808595943540
    Total Energy =                       -511.4980859594354001
  @DF-RKS Final Energy:  -511.49808324302057
    Total Energy =                       -511.4980832430206874
  @DF-RKS Final Energy:  -511.49808631487133
    Total Energy =                       -511.4980863148713865
  @DF-RKS Final Energy:  -511.49808531861726
    Total Energy =                       -511.4980853186172567
  @DF-RKS Final Energy:  -511.49808381214530
    Total Energy =                       -511.4980838121452962
  @DF-RKS Final Energy:  -511.49808651948365
    Total Energy =                       -511.4980865194836497
  @DF-RKS Final Energy:  -511.49808529501701
    Total Energy =                       -511.4980852950170629
  @DF-RKS Final Energy:  -511.49808537495386
    Total Energy =                       -511.4980853749538596
  @DF-RKS Final Energy:  -511.49808523183680
    Total Energy =                       -511.4980852318367397
  @DF-RKS Final Energy:  -511.49808501115552
    Total Energy =                       -511.4980850111555242
  **** Optimization is complete! (in 3 steps) ****
    Final optimized geometry and variables:
  @DF-RKS Final Energy:  -511.49808651948331
    Total Energy =                       -511.4980865194833086
  @DF-RKS Final Energy:  -511.49808529501769
    Total Energy =                       -511.4980852950176882
  @DF-RKS Final Energy:  -511.49808537495340
    Total Energy =                       -511.4980853749534049
  @DF-RKS Final Energy:  -511.49808523183680
    Total Energy =                       -511.4980852318367965
  @DF-RKS Final Energy:  -511.49808501115547
    Total Energy =                       -511.4980850111555242
  @DF-RKS Final Energy:  -511.49808651948342
    Total Energy =                       -511.4980865194834223
  @DF-RKS Final Energy:  -511.49808529501752
    Total Energy =                       -511.4980852950175176
  @DF-RKS Final Energy:  -511.49808537495363
    Total Energy =                       -511.4980853749535754
  @DF-RKS Final Energy:  -511.49808523183674
    Total Energy =                       -511.4980852318367397
  @DF-RKS Final Energy:  -511.49808501115587
    Total Energy =                       -511.4980850111558652
  Basis Set: CC-PV(T+D)Z
    Blend: CC-PV(T+D)Z
  Basis Set: (CC-PV(T+D)Z AUX)
    Blend: CC-PVTZ-JKFIT
  @DF-RKS Final Energy:  -511.49808567465072
    Total Energy =                       -511.4980856746507243
  Basis Set: CC-PV(T+D)Z
    Blend: CC-PV(T+D)Z
  Basis Set: (CC-PV(T+D)Z AUX)
    Blend: CC-PVTZ-JKFIT
  @DF-RKS Final Energy:  -511.49808581433803
    Total Energy =                       -511.4980858143379692
  Multiplicity = 1
  Basis Set: CC-PV(T+D)Z
    Blend: CC-PV(T+D)Z
  Basis Set: (CC-PV(T+D)Z AUX)
    Blend: CC-PVTZ-JKFIT
  @DF-RKS Final Energy:  -511.49808638022859
    Total Energy =                       -511.4980863802285853
    Molecular point group: cs

    Geometry (in Angstrom), charge = 0, multiplicity = 1:

       Center              X                  Y                   Z               Mass
    ------------   -----------------  -----------------  -----------------  -----------------
         O            0.000000000000    -0.000287289811    -1.677391818017    15.994914619570
         C            0.000000000000     0.000665838293    -0.524494990830    12.000000000000
         S            0.000000000000    -0.000106182784     1.036019175049    31.972071174400

  Charge       = 0
  Multiplicity = 1
  Basis Set: CC-PV(T+D)Z
    Blend: CC-PV(T+D)Z
  Basis Set: (CC-PV(T+D)Z AUX)
    Blend: CC-PVTZ-JKFIT

    Orbital Energies [Eh]
    ---------------------

    Doubly Occupied:

       1Ap   -88.917602     2Ap   -19.304680     3Ap   -10.443490
       4Ap    -8.076268     5Ap    -6.033205     1App   -6.026488
       6Ap    -6.026488     7Ap    -1.279650     8Ap    -0.953872
       9Ap    -0.670870     2App   -0.598846    10Ap    -0.598846
      11Ap    -0.580115     3App   -0.400395    12Ap    -0.400395

  @DF-RKS Final Energy:  -511.49808638011859

   => Energetics <=

    Nuclear Repulsion Energy =             79.5488368600857711
    One-Electron Energy =                -861.6103408016736012
    Two-Electron Energy =                 299.7135429655813255
    DFT Exchange-Correlation Energy =     -29.2746358545934946
    Empirical Dispersion Energy =           0.0000000000000000
    VV10 Nonlocal Energy =                  0.1245104504814546
    Total Energy =                       -511.4980863801185365

  Dipole Moment: [D]
     X:     0.0000      Y:     0.0009      Z:     0.5433     Total:     0.5433

  Vibration                       6                   7                   8
  Freq [cm^-1]                 542.5683            542.7825            897.7032
  Irrep                           B1                  B2                  A1
  Reduced mass [u]             13.0330             13.0330             19.6062
  Force const [mDyne/A]         2.2605              2.2623              9.3091

  Vibration                       9
  Freq [cm^-1]                2157.1790
  Irrep                           A1
  Reduced mass [u]             13.1408
  Force const [mDyne/A]        36.0285

  ==> Thermochemistry Components <==

  Entropy, S
    Electronic S            0.000 [cal/(mol K)]        0.000 [J/(mol K)]       0.00000000 [mEh/K] (multiplicity = 1)
    Translational S        38.194 [cal/(mol K)]      159.802 [J/(mol K)]       0.06086550 [mEh/K] (mol. weight = 59.9670 [u], P = 101325.00 [Pa])
    Rotational S           15.745 [cal/(mol K)]       65.878 [J/(mol K)]       0.02509151 [mEh/K] (symmetry no. = 1)
    Vibrational S           1.261 [cal/(mol K)]        5.275 [J/(mol K)]       0.00200908 [mEh/K]
  Total S                  55.200 [cal/(mol K)]      230.955 [J/(mol K)]       0.08796609 [mEh/K]
  Correction S              0.000 [cal/(mol K)]        0.000 [J/(mol K)]       0.00000000 [mEh/K]

  Constant volume heat capacity, Cv
    Electronic Cv           0.000 [cal/(mol K)]        0.000 [J/(mol K)]       0.00000000 [mEh/K]
    Translational Cv        2.981 [cal/(mol K)]       12.472 [J/(mol K)]       0.00475022 [mEh/K]
    Rotational Cv           1.987 [cal/(mol K)]        8.314 [J/(mol K)]       0.00316681 [mEh/K]
    Vibrational Cv          2.821 [cal/(mol K)]       11.804 [J/(mol K)]       0.00449580 [mEh/K]
  Total Cv                  7.789 [cal/(mol K)]       32.590 [J/(mol K)]       0.01241282 [mEh/K]
  Correction Cv             0.000 [cal/(mol K)]        0.000 [J/(mol K)]       0.00000000 [mEh/K]

  Constant pressure heat capacity, Cp
    Electronic Cp           0.000 [cal/(mol K)]        0.000 [J/(mol K)]       0.00000000 [mEh/K]
    Translational Cp        4.968 [cal/(mol K)]       20.786 [J/(mol K)]       0.00791703 [mEh/K]
    Rotational Cp           1.987 [cal/(mol K)]        8.314 [J/(mol K)]       0.00316681 [mEh/K]
    Vibrational Cp          2.821 [cal/(mol K)]       11.804 [J/(mol K)]       0.00449580 [mEh/K]
  Total Cp                  9.776 [cal/(mol K)]       40.904 [J/(mol K)]       0.01557963 [mEh/K]
  Correction Cp             0.000 [cal/(mol K)]        0.000 [J/(mol K)]       0.00000000 [mEh/K]

  ==> Thermochemistry Energy Analysis <==

  Raw electronic energy, E0
  Total E0, Electronic energy at well bottom at 0 [K]                 -511.49808652 [Eh]

  Zero-point energy, ZPE_vib = Sum_i nu_i / 2
    Electronic ZPE          0.000 [kcal/mol]        0.000 [kJ/mol]       0.00000000 [Eh]
    Translational ZPE       0.000 [kcal/mol]        0.000 [kJ/mol]       0.00000000 [Eh]
    Rotational ZPE          0.000 [kcal/mol]        0.000 [kJ/mol]       0.00000000 [Eh]
    Vibrational ZPE         5.919 [kcal/mol]       24.764 [kJ/mol]       0.00943214 [Eh]        2070.116 [cm^-1]
  Correction ZPE            5.919 [kcal/mol]       24.764 [kJ/mol]       0.00943214 [Eh]        2070.116 [cm^-1]
  Total ZPE, Electronic energy at 0 [K]                               -511.48865437 [Eh]

  Thermal Energy, E (includes ZPE)
    Electronic E            0.000 [kcal/mol]        0.000 [kJ/mol]       0.00000000 [Eh]
    Translational E         0.889 [kcal/mol]        3.718 [kJ/mol]       0.00141628 [Eh]
    Rotational E            0.592 [kcal/mol]        2.479 [kJ/mol]       0.00094418 [Eh]
    Vibrational E           6.197 [kcal/mol]       25.929 [kJ/mol]       0.00987571 [Eh]
  Correction E              7.678 [kcal/mol]       32.126 [kJ/mol]       0.01223617 [Eh]
  Total E, Electronic energy at  298.15 [K]                           -511.48585035 [Eh]

  Enthalpy, H_trans = E_trans + k_B * T
    Electronic H            0.000 [kcal/mol]        0.000 [kJ/mol]       0.00000000 [Eh]
    Translational H         1.481 [kcal/mol]        6.197 [kJ/mol]       0.00236046 [Eh]
    Rotational H            0.592 [kcal/mol]        2.479 [kJ/mol]       0.00094418 [Eh]
    Vibrational H           6.197 [kcal/mol]       25.929 [kJ/mol]       0.00987571 [Eh]
  Correction H              8.271 [kcal/mol]       34.605 [kJ/mol]       0.01318036 [Eh]
  Total H, Enthalpy at  298.15 [K]                                    -511.48490616 [Eh]

  Gibbs free energy, G = H - T * S
    Electronic G            0.000 [kcal/mol]        0.000 [kJ/mol]       0.00000000 [Eh]
    Translational G        -9.906 [kcal/mol]      -41.448 [kJ/mol]      -0.01578659 [Eh]
    Rotational G           -4.102 [kcal/mol]      -17.162 [kJ/mol]      -0.00653685 [Eh]
    Vibrational G           5.821 [kcal/mol]       24.356 [kJ/mol]       0.00927671 [Eh]
  Correction G             -8.187 [kcal/mol]      -34.254 [kJ/mol]      -0.01304673 [Eh]
  Total G, Free enthalpy at  298.15 [K]                               -511.51113325 [Eh]

*** Psi4 exiting successfully. Buy a developer a beer!
