                               Psi4 1.3.2 release

  ==> Input File <==

--------------------------------------------------------------------------
memory 144 GB

molecule {
0 1
P 0.0000000000 0.0000000000 -0.0679917919
H 1.1903431933 0.0000000000 0.6964572780
H -0.5951715967 -1.0308674445 0.6964572780
H -0.5951715967 1.0308674445 0.6964572780
}

set dynamic_level 1
set basis cc-pV(T+d)Z

optimize("wB97X-V")
frequencies("wB97X-V")
--------------------------------------------------------------------------

    Molecular point group: cs
  Charge       = 0
  Multiplicity = 1
  Basis Set: CC-PV(T+D)Z
    Blend: CC-PV(T+D)Z
  Basis Set: (CC-PV(T+D)Z AUX)
    Blend: CC-PVTZ-JKFIT
  @DF-RKS Final Energy:  -343.10104794816340
    Total Energy =                       -343.1010479481633979
    Molecular point group: cs
  Basis Set: CC-PV(T+D)Z
    Blend: CC-PV(T+D)Z
  Basis Set: (CC-PV(T+D)Z AUX)
    Blend: CC-PVTZ-JKFIT
  @DF-RKS Final Energy:  -343.10104585546037
    Total Energy =                       -343.1010458554603701
  Basis Set: CC-PV(T+D)Z
    Blend: CC-PV(T+D)Z
  Basis Set: (CC-PV(T+D)Z AUX)
    Blend: CC-PVTZ-JKFIT
  @DF-RKS Final Energy:  -343.10104589934832
    Total Energy =                       -343.1010458993482644
  Basis Set: CC-PV(T+D)Z
    Blend: CC-PV(T+D)Z
  Basis Set: (CC-PV(T+D)Z AUX)
    Blend: CC-PVTZ-JKFIT
  @DF-RKS Final Energy:  -343.10104671637271
    Total Energy =                       -343.1010467163726503
  @DF-RKS Final Energy:  -343.10104690276376
    Total Energy =                       -343.1010469027636987
  @DF-RKS Final Energy:  -343.10104353695033
    Total Energy =                       -343.1010435369503853
  @DF-RKS Final Energy:  -343.10104873522766
    Total Energy =                       -343.1010487352276073
  @DF-RKS Final Energy:  -343.10104354890655
    Total Energy =                       -343.1010435489064889
  @DF-RKS Final Energy:  -343.10104872399523
    Total Energy =                       -343.1010487239952909
  @DF-RKS Final Energy:  -343.10105049735910
    Total Energy =                       -343.1010504973590969
  @DF-RKS Final Energy:  -343.10104843523675
    Total Energy =                       -343.1010484352367484
  @DF-RKS Final Energy:  -343.10104843317129
    Total Energy =                       -343.1010484331713428
  @DF-RKS Final Energy:  -343.10104973912098
    Total Energy =                       -343.1010497391209242
  @DF-RKS Final Energy:  -343.10104899117937
    Total Energy =                       -343.1010489911793115
  @DF-RKS Final Energy:  -343.10104901772297
    Total Energy =                       -343.1010490177230281
  @DF-RKS Final Energy:  -343.10104836214322
    Total Energy =                       -343.1010483621432741
  @DF-RKS Final Energy:  -343.10104901683053
    Total Energy =                       -343.1010490168305864
  @DF-RKS Final Energy:  -343.10104836331703
    Total Energy =                       -343.1010483633170338
  **** Optimization is complete! (in 2 steps) ****
    Final optimized geometry and variables:
  @DF-RKS Final Energy:  -343.10105049744760
    Total Energy =                       -343.1010504974475452
  @DF-RKS Final Energy:  -343.10104843542939
    Total Energy =                       -343.1010484354293908
  @DF-RKS Final Energy:  -343.10104901766664
    Total Energy =                       -343.1010490176666394
  @DF-RKS Final Energy:  -343.10104836214276
    Total Energy =                       -343.1010483621427625
  @DF-RKS Final Energy:  -343.10104901667080
    Total Energy =                       -343.1010490166707996
  @DF-RKS Final Energy:  -343.10104836333130
    Total Energy =                       -343.1010483633313015
  @DF-RKS Final Energy:  -343.10104693397000
    Total Energy =                       -343.1010469339699966
  @DF-RKS Final Energy:  -343.10104766986865
    Total Energy =                       -343.1010476698686489
  @DF-RKS Final Energy:  -343.10104481722135
    Total Energy =                       -343.1010448172214069
  @DF-RKS Final Energy:  -343.10104543152414
    Total Energy =                       -343.1010454315241418
  @DF-RKS Final Energy:  -343.10104539131743
    Total Energy =                       -343.1010453913173706
  @DF-RKS Final Energy:  -343.10104677474266
    Total Energy =                       -343.1010467747426560
  @DF-RKS Final Energy:  -343.10104779851906
    Total Energy =                       -343.1010477985190619
  @DF-RKS Final Energy:  -343.10104845921882
    Total Energy =                       -343.1010484592187595
  @DF-RKS Final Energy:  -343.10104539195743
    Total Energy =                       -343.1010453919574275
  @DF-RKS Final Energy:  -343.10104677346402
    Total Energy =                       -343.1010467734640201
  @DF-RKS Final Energy:  -343.10104544203068
    Total Energy =                       -343.1010454420306814
  @DF-RKS Final Energy:  -343.10104674293984
    Total Energy =                       -343.1010467429398432
  Basis Set: CC-PV(T+D)Z
    Blend: CC-PV(T+D)Z
  Basis Set: (CC-PV(T+D)Z AUX)
    Blend: CC-PVTZ-JKFIT
  @DF-RKS Final Energy:  -343.10104842758682
    Total Energy =                       -343.1010484275868180
  Basis Set: CC-PV(T+D)Z
    Blend: CC-PV(T+D)Z
  Basis Set: (CC-PV(T+D)Z AUX)
    Blend: CC-PVTZ-JKFIT
  @DF-RKS Final Energy:  -343.10104987645673
    Total Energy =                       -343.1010498764567274
  Multiplicity = 1
  Basis Set: CC-PV(T+D)Z
    Blend: CC-PV(T+D)Z
  Basis Set: (CC-PV(T+D)Z AUX)
    Blend: CC-PVTZ-JKFIT
  @DF-RKS Final Energy:  -343.10104991620705
    Total Energy =                       -343.1010499162070460
    Molecular point group: c1

    Geometry (in Angstrom), charge = 0, multiplicity = 1:

       Center              X                  Y                   Z               Mass
    ------------   -----------------  -----------------  -----------------  -----------------
         P            0.000000992158     0.067818759547    -0.000107326893    30.973761998420
         H            0.594977511105    -0.695980074229     1.033174830337     1.007825032230
         H            0.597613113515    -0.693544651127    -1.032497478087     1.007825032230
         H           -1.192621116888    -0.694767736188     0.002621154457     1.007825032230

  Charge       = 0
  Multiplicity = 1
  Basis Set: CC-PV(T+D)Z
    Blend: CC-PV(T+D)Z
  Basis Set: (CC-PV(T+D)Z AUX)
    Blend: CC-PVTZ-JKFIT

    Orbital Energies [Eh]
    ---------------------

    Doubly Occupied:

       1A    -77.092112     2A     -6.656650     3A     -4.810637
       4A     -4.810634     5A     -4.806118     6A     -0.772379
       7A     -0.489090     8A     -0.488413     9A     -0.374253

  @DF-RKS Final Energy:  -343.10104991634654

   => Energetics <=

    Nuclear Repulsion Energy =             17.5906031902988111
    One-Electron Energy =                -508.5768209791667687
    Two-Electron Energy =                 165.8325778743988224
    DFT Exchange-Correlation Energy =     -18.0227998702197141
    Empirical Dispersion Energy =           0.0000000000000000
    VV10 Nonlocal Energy =                  0.0753898683423340
    Total Energy =                       -343.1010499163465965

  Dipole Moment: [D]
     X:     0.0000      Y:    -0.7081      Z:    -0.0027     Total:     0.7081

  Vibration                       7                   8                   9
  Freq [cm^-1]                 372.9024           1023.4096           1151.1947
  Irrep                          App                  Ap                  Ap
  Reduced mass [u]              1.0187              1.0752              1.0257
  Force const [mDyne/A]         0.0835              0.6635              0.8009

  Vibration                       10                  11                  12
  Freq [cm^-1]                2355.6995           2450.0001           2454.0001
  Irrep                          App                  Ap                  Ap
  Reduced mass [u]              1.0483              1.0320              1.0410
  Force const [mDyne/A]         3.4275              3.6496              3.6936

  ==> Thermochemistry Components <==

  Entropy, S
    Electronic S            0.000 [cal/(mol K)]        0.000 [J/(mol K)]       0.00000000 [mEh/K] (multiplicity = 1)
    Translational S        36.502 [cal/(mol K)]      152.724 [J/(mol K)]       0.05816968 [mEh/K] (mol. weight = 33.9972 [u], P = 101325.00 [Pa])
    Rotational S           15.674 [cal/(mol K)]       65.580 [J/(mol K)]       0.02497829 [mEh/K] (symmetry no. = 1)
    Vibrational S           1.204 [cal/(mol K)]        5.038 [J/(mol K)]       0.00191892 [mEh/K]
  Total S                  53.380 [cal/(mol K)]      223.343 [J/(mol K)]       0.08506690 [mEh/K]
  Correction S              0.000 [cal/(mol K)]        0.000 [J/(mol K)]       0.00000000 [mEh/K]

  Constant volume heat capacity, Cv
    Electronic Cv           0.000 [cal/(mol K)]        0.000 [J/(mol K)]       0.00000000 [mEh/K]
    Translational Cv        2.981 [cal/(mol K)]       12.472 [J/(mol K)]       0.00475022 [mEh/K]
    Rotational Cv           2.981 [cal/(mol K)]       12.472 [J/(mol K)]       0.00475022 [mEh/K]
    Vibrational Cv          2.126 [cal/(mol K)]        8.895 [J/(mol K)]       0.00338806 [mEh/K]
  Total Cv                  8.088 [cal/(mol K)]       33.839 [J/(mol K)]       0.01288849 [mEh/K]
  Correction Cv             0.000 [cal/(mol K)]        0.000 [J/(mol K)]       0.00000000 [mEh/K]

  Constant pressure heat capacity, Cp
    Electronic Cp           0.000 [cal/(mol K)]        0.000 [J/(mol K)]       0.00000000 [mEh/K]
    Translational Cp        4.968 [cal/(mol K)]       20.786 [J/(mol K)]       0.00791703 [mEh/K]
    Rotational Cp           2.981 [cal/(mol K)]       12.472 [J/(mol K)]       0.00475022 [mEh/K]
    Vibrational Cp          2.126 [cal/(mol K)]        8.895 [J/(mol K)]       0.00338806 [mEh/K]
  Total Cp                 10.075 [cal/(mol K)]       42.153 [J/(mol K)]       0.01605530 [mEh/K]
  Correction Cp             0.000 [cal/(mol K)]        0.000 [J/(mol K)]       0.00000000 [mEh/K]

  ==> Thermochemistry Energy Analysis <==

  Raw electronic energy, E0
  Total E0, Electronic energy at well bottom at 0 [K]                 -343.10105050 [Eh]

  Zero-point energy, ZPE_vib = Sum_i nu_i / 2
    Electronic ZPE          0.000 [kcal/mol]        0.000 [kJ/mol]       0.00000000 [Eh]
    Translational ZPE       0.000 [kcal/mol]        0.000 [kJ/mol]       0.00000000 [Eh]
    Rotational ZPE          0.000 [kcal/mol]        0.000 [kJ/mol]       0.00000000 [Eh]
    Vibrational ZPE        14.020 [kcal/mol]       58.660 [kJ/mol]       0.02234246 [Eh]        4903.603 [cm^-1]
  Correction ZPE           14.020 [kcal/mol]       58.660 [kJ/mol]       0.02234246 [Eh]        4903.603 [cm^-1]
  Total ZPE, Electronic energy at 0 [K]                               -343.07870804 [Eh]

  Thermal Energy, E (includes ZPE)
    Electronic E            0.000 [kcal/mol]        0.000 [kJ/mol]       0.00000000 [Eh]
    Translational E         0.889 [kcal/mol]        3.718 [kJ/mol]       0.00141628 [Eh]
    Rotational E            0.889 [kcal/mol]        3.718 [kJ/mol]       0.00141628 [Eh]
    Vibrational E          14.265 [kcal/mol]       59.687 [kJ/mol]       0.02273343 [Eh]
  Correction E             16.043 [kcal/mol]       67.123 [kJ/mol]       0.02556598 [Eh]
  Total E, Electronic energy at  298.15 [K]                           -343.07548452 [Eh]

  Enthalpy, H_trans = E_trans + k_B * T
    Electronic H            0.000 [kcal/mol]        0.000 [kJ/mol]       0.00000000 [Eh]
    Translational H         1.481 [kcal/mol]        6.197 [kJ/mol]       0.00236046 [Eh]
    Rotational H            0.889 [kcal/mol]        3.718 [kJ/mol]       0.00141628 [Eh]
    Vibrational H          14.265 [kcal/mol]       59.687 [kJ/mol]       0.02273343 [Eh]
  Correction H             16.635 [kcal/mol]       69.602 [kJ/mol]       0.02651016 [Eh]
  Total H, Enthalpy at  298.15 [K]                                    -343.07454033 [Eh]

  Gibbs free energy, G = H - T * S
    Electronic G            0.000 [kcal/mol]        0.000 [kJ/mol]       0.00000000 [Eh]
    Translational G        -9.402 [kcal/mol]      -39.337 [kJ/mol]      -0.01498283 [Eh]
    Rotational G           -3.785 [kcal/mol]      -15.834 [kJ/mol]      -0.00603100 [Eh]
    Vibrational G          13.906 [kcal/mol]       58.184 [kJ/mol]       0.02216130 [Eh]
  Correction G              0.720 [kcal/mol]        3.013 [kJ/mol]       0.00114747 [Eh]
  Total G, Free enthalpy at  298.15 [K]                               -343.09990303 [Eh]

*** Psi4 exiting successfully. Buy a developer a beer!
