                               Psi4 1.3.2 release

  ==> Input File <==

--------------------------------------------------------------------------
memory 144 GB

molecule {
0 1
Si 0.0000000000 0.0000000000 0.0000000000
O 0.0000000000 0.0000000000 1.5170406700
}

set dynamic_level 1
set basis cc-pV(T+d)Z

optimize("wB97X-V")
frequencies("wB97X-V")
--------------------------------------------------------------------------

    Molecular point group: c2v
  Charge       = 0
  Multiplicity = 1
  Basis Set: CC-PV(T+D)Z
    Blend: CC-PV(T+D)Z
  Basis Set: (CC-PV(T+D)Z AUX)
    Blend: CC-PVTZ-JKFIT
  @DF-RKS Final Energy:  -364.68741446183640
    Total Energy =                       -364.6874144618363971
    Molecular point group: c2v
  Basis Set: CC-PV(T+D)Z
    Blend: CC-PV(T+D)Z
  Basis Set: (CC-PV(T+D)Z AUX)
    Blend: CC-PVTZ-JKFIT
  @DF-RKS Final Energy:  -364.68738970443968
    Total Energy =                       -364.6873897044396813
  Basis Set: CC-PV(T+D)Z
    Blend: CC-PV(T+D)Z
  Basis Set: (CC-PV(T+D)Z AUX)
    Blend: CC-PVTZ-JKFIT
  @DF-RKS Final Energy:  -364.68743772729289
    Total Energy =                       -364.6874377272928882
  Basis Set: CC-PV(T+D)Z
    Blend: CC-PV(T+D)Z
  Basis Set: (CC-PV(T+D)Z AUX)
    Blend: CC-PVTZ-JKFIT
  @DF-RKS Final Energy:  -364.68760042939590
    Total Energy =                       -364.6876004293958999
  @DF-RKS Final Energy:  -364.68759672657694
    Total Energy =                       -364.6875967265769418
  @DF-RKS Final Energy:  -364.68760254341629
    Total Energy =                       -364.6876025434162329
  @DF-RKS Final Energy:  -364.68760308230827
    Total Energy =                       -364.6876030823082147
  @DF-RKS Final Energy:  -364.68760238641903
    Total Energy =                       -364.6876023864190302
  @DF-RKS Final Energy:  -364.68760217565921
    Total Energy =                       -364.6876021756592081
  **** Optimization is complete! (in 3 steps) ****
    Final optimized geometry and variables:
  @DF-RKS Final Energy:  -364.68760308230839
    Total Energy =                       -364.6876030823083852
  @DF-RKS Final Energy:  -364.68760238641880
    Total Energy =                       -364.6876023864188028
  Basis Set: CC-PV(T+D)Z
    Blend: CC-PV(T+D)Z
  Basis Set: (CC-PV(T+D)Z AUX)
    Blend: CC-PVTZ-JKFIT
  @DF-RKS Final Energy:  -364.68760217565915
    Total Energy =                       -364.6876021756592081
  Basis Set: CC-PV(T+D)Z
    Blend: CC-PV(T+D)Z
  Basis Set: (CC-PV(T+D)Z AUX)
    Blend: CC-PVTZ-JKFIT
  @DF-RKS Final Energy:  -364.68760308230850
    Total Energy =                       -364.6876030823083852
  Multiplicity = 1
  Basis Set: CC-PV(T+D)Z
    Blend: CC-PV(T+D)Z
  Basis Set: (CC-PV(T+D)Z AUX)
    Blend: CC-PVTZ-JKFIT
  @DF-RKS Final Energy:  -364.68760238641909
    Total Energy =                       -364.6876023864190870
    Molecular point group: c2v

    Geometry (in Angstrom), charge = 0, multiplicity = 1:

       Center              X                  Y                   Z               Mass
    ------------   -----------------  -----------------  -----------------  -----------------
         SI           0.000000000000     0.000000000000    -0.546823478520    27.976926534650
         O            0.000000000000     0.000000000000     0.956456514451    15.994914619570

  Charge       = 0
  Multiplicity = 1
  Basis Set: CC-PV(T+D)Z
    Blend: CC-PV(T+D)Z
  Basis Set: (CC-PV(T+D)Z AUX)
    Blend: CC-PVTZ-JKFIT

    Orbital Energies [Eh]
    ---------------------

    Doubly Occupied:

       1A1   -66.183732     2A1   -19.196601     3A1    -5.420246
       1B1    -3.772195     1B2    -3.772195     4A1    -3.764469
       5A1    -1.067785     6A1    -0.545073     2B1    -0.437758
       2B2    -0.437758     7A1    -0.409429

  @DF-RKS Final Energy:  -364.68760217565915

   => Energetics <=

    Nuclear Repulsion Energy =             39.4256877442249518
    One-Electron Energy =                -583.4186311252336736
    Two-Electron Energy =                 200.9954230943018558
    DFT Exchange-Correlation Energy =     -21.7830823050588087
    Empirical Dispersion Energy =           0.0000000000000000
    VV10 Nonlocal Energy =                  0.0930004161064100
    Total Energy =                       -364.6876021756592650

  Dipole Moment: [D]
     X:     0.0000      Y:     0.0000      Z:    -3.0211     Total:     3.0211

  Vibration                       6
  Freq [cm^-1]                1301.4831
  Irrep                           A1
  Reduced mass [u]             18.9466
  Force const [mDyne/A]        18.9086

  ==> Thermochemistry Components <==

  Entropy, S
    Electronic S            0.000 [cal/(mol K)]        0.000 [J/(mol K)]       0.00000000 [mEh/K] (multiplicity = 1)
    Translational S        37.269 [cal/(mol K)]      155.933 [J/(mol K)]       0.05939177 [mEh/K] (mol. weight = 43.9718 [u], P = 101325.00 [Pa])
    Rotational S           13.206 [cal/(mol K)]       55.254 [J/(mol K)]       0.02104505 [mEh/K] (symmetry no. = 1)
    Vibrational S           0.027 [cal/(mol K)]        0.114 [J/(mol K)]       0.00004325 [mEh/K]
  Total S                  50.502 [cal/(mol K)]      211.300 [J/(mol K)]       0.08048007 [mEh/K]
  Correction S              0.000 [cal/(mol K)]        0.000 [J/(mol K)]       0.00000000 [mEh/K]

  Constant volume heat capacity, Cv
    Electronic Cv           0.000 [cal/(mol K)]        0.000 [J/(mol K)]       0.00000000 [mEh/K]
    Translational Cv        2.981 [cal/(mol K)]       12.472 [J/(mol K)]       0.00475022 [mEh/K]
    Rotational Cv           1.987 [cal/(mol K)]        8.314 [J/(mol K)]       0.00316681 [mEh/K]
    Vibrational Cv          0.147 [cal/(mol K)]        0.616 [J/(mol K)]       0.00023477 [mEh/K]
  Total Cv                  5.115 [cal/(mol K)]       21.403 [J/(mol K)]       0.00815179 [mEh/K]
  Correction Cv             0.000 [cal/(mol K)]        0.000 [J/(mol K)]       0.00000000 [mEh/K]

  Constant pressure heat capacity, Cp
    Electronic Cp           0.000 [cal/(mol K)]        0.000 [J/(mol K)]       0.00000000 [mEh/K]
    Translational Cp        4.968 [cal/(mol K)]       20.786 [J/(mol K)]       0.00791703 [mEh/K]
    Rotational Cp           1.987 [cal/(mol K)]        8.314 [J/(mol K)]       0.00316681 [mEh/K]
    Vibrational Cp          0.147 [cal/(mol K)]        0.616 [J/(mol K)]       0.00023477 [mEh/K]
  Total Cp                  7.103 [cal/(mol K)]       29.717 [J/(mol K)]       0.01131860 [mEh/K]
  Correction Cp             0.000 [cal/(mol K)]        0.000 [J/(mol K)]       0.00000000 [mEh/K]

  ==> Thermochemistry Energy Analysis <==

  Raw electronic energy, E0
  Total E0, Electronic energy at well bottom at 0 [K]                 -364.68760308 [Eh]

  Zero-point energy, ZPE_vib = Sum_i nu_i / 2
    Electronic ZPE          0.000 [kcal/mol]        0.000 [kJ/mol]       0.00000000 [Eh]
    Translational ZPE       0.000 [kcal/mol]        0.000 [kJ/mol]       0.00000000 [Eh]
    Rotational ZPE          0.000 [kcal/mol]        0.000 [kJ/mol]       0.00000000 [Eh]
    Vibrational ZPE         1.861 [kcal/mol]        7.785 [kJ/mol]       0.00296500 [Eh]         650.742 [cm^-1]
  Correction ZPE            1.861 [kcal/mol]        7.785 [kJ/mol]       0.00296500 [Eh]         650.742 [cm^-1]
  Total ZPE, Electronic energy at 0 [K]                               -364.68463809 [Eh]

  Thermal Energy, E (includes ZPE)
    Electronic E            0.000 [kcal/mol]        0.000 [kJ/mol]       0.00000000 [Eh]
    Translational E         0.889 [kcal/mol]        3.718 [kJ/mol]       0.00141628 [Eh]
    Rotational E            0.592 [kcal/mol]        2.479 [kJ/mol]       0.00094418 [Eh]
    Vibrational E           1.868 [kcal/mol]        7.814 [kJ/mol]       0.00297612 [Eh]
  Correction E              3.349 [kcal/mol]       14.011 [kJ/mol]       0.00533658 [Eh]
  Total E, Electronic energy at  298.15 [K]                           -364.68226650 [Eh]

  Enthalpy, H_trans = E_trans + k_B * T
    Electronic H            0.000 [kcal/mol]        0.000 [kJ/mol]       0.00000000 [Eh]
    Translational H         1.481 [kcal/mol]        6.197 [kJ/mol]       0.00236046 [Eh]
    Rotational H            0.592 [kcal/mol]        2.479 [kJ/mol]       0.00094418 [Eh]
    Vibrational H           1.868 [kcal/mol]        7.814 [kJ/mol]       0.00297612 [Eh]
  Correction H              3.941 [kcal/mol]       16.490 [kJ/mol]       0.00628077 [Eh]
  Total H, Enthalpy at  298.15 [K]                                    -364.68132232 [Eh]

  Gibbs free energy, G = H - T * S
    Electronic G            0.000 [kcal/mol]        0.000 [kJ/mol]       0.00000000 [Eh]
    Translational G        -9.631 [kcal/mol]      -40.294 [kJ/mol]      -0.01534720 [Eh]
    Rotational G           -3.345 [kcal/mol]      -13.995 [kJ/mol]      -0.00533040 [Eh]
    Vibrational G           1.859 [kcal/mol]        7.780 [kJ/mol]       0.00296323 [Eh]
  Correction G            -11.116 [kcal/mol]      -46.509 [kJ/mol]      -0.01771437 [Eh]
  Total G, Free enthalpy at  298.15 [K]                               -364.70531745 [Eh]

*** Psi4 exiting successfully. Buy a developer a beer!
