                               Psi4 1.3.2 release

  ==> Input File <==

--------------------------------------------------------------------------
memory 144 GB

molecule {
0 1
S 0.0000000000 0.0000000000 0.0000000000
O 0.0000000000 0.0000000000 1.4355085900
O 1.2508167239 0.0000000000 -0.7043737894
}

set dynamic_level 1
set basis cc-pV(T+d)Z

optimize("wB97X-V")
frequencies("wB97X-V")
--------------------------------------------------------------------------

    Molecular point group: c2v
  Charge       = 0
  Multiplicity = 1
  Basis Set: CC-PV(T+D)Z
    Blend: CC-PV(T+D)Z
  Basis Set: (CC-PV(T+D)Z AUX)
    Blend: CC-PVTZ-JKFIT
  @DF-RKS Final Energy:  -548.58955189885091
    Total Energy =                       -548.5895518988509139
    Molecular point group: c2v
  Basis Set: CC-PV(T+D)Z
    Blend: CC-PV(T+D)Z
  Basis Set: (CC-PV(T+D)Z AUX)
    Blend: CC-PVTZ-JKFIT
  @DF-RKS Final Energy:  -548.58953986707763
    Total Energy =                       -548.5895398670776331
  Basis Set: CC-PV(T+D)Z
    Blend: CC-PV(T+D)Z
  Basis Set: (CC-PV(T+D)Z AUX)
    Blend: CC-PVTZ-JKFIT
  @DF-RKS Final Energy:  -548.58956316198783
    Total Energy =                       -548.5895631619878259
  Basis Set: CC-PV(T+D)Z
    Blend: CC-PV(T+D)Z
  Basis Set: (CC-PV(T+D)Z AUX)
    Blend: CC-PVTZ-JKFIT
  @DF-RKS Final Energy:  -548.58956894546236
    Total Energy =                       -548.5895689454623607
  @DF-RKS Final Energy:  -548.58953394044306
    Total Energy =                       -548.5895339404430615
  @DF-RKS Final Energy:  -548.58969978365394
    Total Energy =                       -548.5896997836539413
  @DF-RKS Final Energy:  -548.58969402264051
    Total Energy =                       -548.5896940226405150
  @DF-RKS Final Energy:  -548.58970475398348
    Total Energy =                       -548.5897047539833693
  @DF-RKS Final Energy:  -548.58970280375138
    Total Energy =                       -548.5897028037513792
  @DF-RKS Final Energy:  -548.58969582055340
    Total Energy =                       -548.5896958205534020
  @DF-RKS Final Energy:  -548.58971652480636
    Total Energy =                       -548.5897165248062493
  @DF-RKS Final Energy:  -548.58971758599023
    Total Energy =                       -548.5897175859903427
  @DF-RKS Final Energy:  -548.58971466971479
    Total Energy =                       -548.5897146697145672
  @DF-RKS Final Energy:  -548.58971552420383
    Total Energy =                       -548.5897155242038252
  @DF-RKS Final Energy:  -548.58971656736082
    Total Energy =                       -548.5897165673609379
  @DF-RKS Final Energy:  -548.58971818451039
    Total Energy =                       -548.5897181845102750
  @DF-RKS Final Energy:  -548.58971775601549
    Total Energy =                       -548.5897177560154887
  @DF-RKS Final Energy:  -548.58971781832315
    Total Energy =                       -548.5897178183231517
  @DF-RKS Final Energy:  -548.58971772121902
    Total Energy =                       -548.5897177212190172
  @DF-RKS Final Energy:  -548.58971769215589
    Total Energy =                       -548.5897176921558867
  **** Optimization is complete! (in 4 steps) ****
    Final optimized geometry and variables:
  @DF-RKS Final Energy:  -548.58971818451016
    Total Energy =                       -548.5897181845101613
  @DF-RKS Final Energy:  -548.58971775614862
    Total Energy =                       -548.5897177561485023
  @DF-RKS Final Energy:  -548.58971781855701
    Total Energy =                       -548.5897178185570056
  @DF-RKS Final Energy:  -548.58971772122038
    Total Energy =                       -548.5897177212203815
  @DF-RKS Final Energy:  -548.58971769215532
    Total Energy =                       -548.5897176921553182
  @DF-RKS Final Energy:  -548.58971818451039
    Total Energy =                       -548.5897181845103887
  @DF-RKS Final Energy:  -548.58971775614930
    Total Energy =                       -548.5897177561492981
  @DF-RKS Final Energy:  -548.58971781855757
    Total Energy =                       -548.5897178185574603
  @DF-RKS Final Energy:  -548.58971772122015
    Total Energy =                       -548.5897177212201541
  Basis Set: CC-PV(T+D)Z
    Blend: CC-PV(T+D)Z
  Basis Set: (CC-PV(T+D)Z AUX)
    Blend: CC-PVTZ-JKFIT
  @DF-RKS Final Energy:  -548.58971769215543
    Total Energy =                       -548.5897176921555456
  Basis Set: CC-PV(T+D)Z
    Blend: CC-PV(T+D)Z
  Basis Set: (CC-PV(T+D)Z AUX)
    Blend: CC-PVTZ-JKFIT
  @DF-RKS Final Energy:  -548.58971792045304
    Total Energy =                       -548.5897179204530403
  Multiplicity = 1
  Basis Set: CC-PV(T+D)Z
    Blend: CC-PV(T+D)Z
  Basis Set: (CC-PV(T+D)Z AUX)
    Blend: CC-PVTZ-JKFIT
  @DF-RKS Final Energy:  -548.58971788799101
    Total Energy =                       -548.5897178879909006
    Molecular point group: cs

    Geometry (in Angstrom), charge = 0, multiplicity = 1:

       Center              X                  Y                   Z               Mass
    ------------   -----------------  -----------------  -----------------  -----------------
         S            0.000000000000    -0.000305617609    -0.361682256115    31.972071174400
         O            0.000000000000     1.231402803516     0.361660904906    15.994914619570
         O            0.000000000000    -1.230791907604     0.361302056138    15.994914619570

  Charge       = 0
  Multiplicity = 1
  Basis Set: CC-PV(T+D)Z
    Blend: CC-PV(T+D)Z
  Basis Set: (CC-PV(T+D)Z AUX)
    Blend: CC-PVTZ-JKFIT

    Orbital Energies [Eh]
    ---------------------

    Doubly Occupied:

       1Ap   -89.065856     2Ap   -19.271892     3Ap   -19.271708
       4Ap    -8.203739     1App   -6.161340     5Ap    -6.158054
       6Ap    -6.154053     7Ap    -1.282538     8Ap    -1.185622
       9Ap    -0.754385     2App   -0.612488    10Ap    -0.611971
      11Ap    -0.606041     3App   -0.481040    12Ap    -0.469973
      13Ap    -0.438565

  @DF-RKS Final Energy:  -548.58971718402643

   => Energetics <=

    Nuclear Repulsion Energy =            108.6358273299908745
    One-Electron Energy =                -971.4904295275256345
    Two-Electron Energy =                 345.8301512058239382
    DFT Exchange-Correlation Energy =     -31.6978574718063157
    Empirical Dispersion Energy =           0.0000000000000000
    VV10 Nonlocal Energy =                  0.1325912794906726
    Total Energy =                       -548.5897171840264264

  Dipole Moment: [D]
     X:     0.0000      Y:    -0.0061      Z:    -1.7062     Total:     1.7062

  Vibration                       7                   8                   9
  Freq [cm^-1]                 538.9841           1248.6694           1454.3011
  Irrep                           A1                  A1                  B2
  Reduced mass [u]             18.6369             17.9349             20.3281
  Force const [mDyne/A]         3.1899             16.4757             25.3313

  ==> Thermochemistry Components <==

  Entropy, S
    Electronic S            0.000 [cal/(mol K)]        0.000 [J/(mol K)]       0.00000000 [mEh/K] (multiplicity = 1)
    Translational S        38.386 [cal/(mol K)]      160.607 [J/(mol K)]       0.06117186 [mEh/K] (mol. weight = 63.9619 [u], P = 101325.00 [Pa])
    Rotational S           20.201 [cal/(mol K)]       84.520 [J/(mol K)]       0.03219185 [mEh/K] (symmetry no. = 2)
    Vibrational S           0.616 [cal/(mol K)]        2.576 [J/(mol K)]       0.00098096 [mEh/K]
  Total S                  59.202 [cal/(mol K)]      247.702 [J/(mol K)]       0.09434467 [mEh/K]
  Correction S              0.000 [cal/(mol K)]        0.000 [J/(mol K)]       0.00000000 [mEh/K]

  Constant volume heat capacity, Cv
    Electronic Cv           0.000 [cal/(mol K)]        0.000 [J/(mol K)]       0.00000000 [mEh/K]
    Translational Cv        2.981 [cal/(mol K)]       12.472 [J/(mol K)]       0.00475022 [mEh/K]
    Rotational Cv           2.981 [cal/(mol K)]       12.472 [J/(mol K)]       0.00475022 [mEh/K]
    Vibrational Cv          1.427 [cal/(mol K)]        5.970 [J/(mol K)]       0.00227378 [mEh/K]
  Total Cv                  7.388 [cal/(mol K)]       30.913 [J/(mol K)]       0.01177421 [mEh/K]
  Correction Cv             0.000 [cal/(mol K)]        0.000 [J/(mol K)]       0.00000000 [mEh/K]

  Constant pressure heat capacity, Cp
    Electronic Cp           0.000 [cal/(mol K)]        0.000 [J/(mol K)]       0.00000000 [mEh/K]
    Translational Cp        4.968 [cal/(mol K)]       20.786 [J/(mol K)]       0.00791703 [mEh/K]
    Rotational Cp           2.981 [cal/(mol K)]       12.472 [J/(mol K)]       0.00475022 [mEh/K]
    Vibrational Cp          1.427 [cal/(mol K)]        5.970 [J/(mol K)]       0.00227378 [mEh/K]
  Total Cp                  9.376 [cal/(mol K)]       39.228 [J/(mol K)]       0.01494102 [mEh/K]
  Correction Cp             0.000 [cal/(mol K)]        0.000 [J/(mol K)]       0.00000000 [mEh/K]

  ==> Thermochemistry Energy Analysis <==

  Raw electronic energy, E0
  Total E0, Electronic energy at well bottom at 0 [K]                 -548.58971818 [Eh]

  Zero-point energy, ZPE_vib = Sum_i nu_i / 2
    Electronic ZPE          0.000 [kcal/mol]        0.000 [kJ/mol]       0.00000000 [Eh]
    Translational ZPE       0.000 [kcal/mol]        0.000 [kJ/mol]       0.00000000 [Eh]
    Rotational ZPE          0.000 [kcal/mol]        0.000 [kJ/mol]       0.00000000 [Eh]
    Vibrational ZPE         4.635 [kcal/mol]       19.391 [kJ/mol]       0.00738572 [Eh]        1620.977 [cm^-1]
  Correction ZPE            4.635 [kcal/mol]       19.391 [kJ/mol]       0.00738572 [Eh]        1620.977 [cm^-1]
  Total ZPE, Electronic energy at 0 [K]                               -548.58233247 [Eh]

  Thermal Energy, E (includes ZPE)
    Electronic E            0.000 [kcal/mol]        0.000 [kJ/mol]       0.00000000 [Eh]
    Translational E         0.889 [kcal/mol]        3.718 [kJ/mol]       0.00141628 [Eh]
    Rotational E            0.889 [kcal/mol]        3.718 [kJ/mol]       0.00141628 [Eh]
    Vibrational E           4.770 [kcal/mol]       19.960 [kJ/mol]       0.00760226 [Eh]
  Correction E              6.548 [kcal/mol]       27.397 [kJ/mol]       0.01043482 [Eh]
  Total E, Electronic energy at  298.15 [K]                           -548.57928337 [Eh]

  Enthalpy, H_trans = E_trans + k_B * T
    Electronic H            0.000 [kcal/mol]        0.000 [kJ/mol]       0.00000000 [Eh]
    Translational H         1.481 [kcal/mol]        6.197 [kJ/mol]       0.00236046 [Eh]
    Rotational H            0.889 [kcal/mol]        3.718 [kJ/mol]       0.00141628 [Eh]
    Vibrational H           4.770 [kcal/mol]       19.960 [kJ/mol]       0.00760226 [Eh]
  Correction H              7.140 [kcal/mol]       29.876 [kJ/mol]       0.01137900 [Eh]
  Total H, Enthalpy at  298.15 [K]                                    -548.57833918 [Eh]

  Gibbs free energy, G = H - T * S
    Electronic G            0.000 [kcal/mol]        0.000 [kJ/mol]       0.00000000 [Eh]
    Translational G        -9.964 [kcal/mol]      -41.687 [kJ/mol]      -0.01587793 [Eh]
    Rotational G           -5.134 [kcal/mol]      -21.481 [kJ/mol]      -0.00818172 [Eh]
    Vibrational G           4.587 [kcal/mol]       19.192 [kJ/mol]       0.00730979 [Eh]
  Correction G            -10.511 [kcal/mol]      -43.977 [kJ/mol]      -0.01674986 [Eh]
  Total G, Free enthalpy at  298.15 [K]                               -548.60646804 [Eh]

*** Psi4 exiting successfully. Buy a developer a beer!
