                               Psi4 1.3.2 release

  ==> Input File <==

--------------------------------------------------------------------------
memory 144 GB

molecule {
0 1
C -0.0479167327 0.6682939561 0.0000000000
H -1.0907101856 0.9776732069 0.0000000000
H 0.4344161461 1.0815239129 0.8898543791
H 0.4344161461 1.0815239129 -0.8898543791
O -0.0410920225 -0.7509554452 0.0000000000
H 0.8712936485 -1.0420305436 0.0000000000
}

set dynamic_level 1
set basis cc-pV(T+d)Z

optimize("wB97X-V")
frequencies("wB97X-V")
--------------------------------------------------------------------------

    Molecular point group: cs
  Charge       = 0
  Multiplicity = 1
  Basis Set: CC-PV(T+D)Z
    Blend: CC-PV(T+D)Z
  Basis Set: (CC-PV(T+D)Z AUX)
    Blend: CC-PVTZ-JKFIT
  @DF-RKS Final Energy:  -115.72590961820612
    Total Energy =                       -115.7259096182061313
    Molecular point group: cs
  Basis Set: CC-PV(T+D)Z
    Blend: CC-PV(T+D)Z
  Basis Set: (CC-PV(T+D)Z AUX)
    Blend: CC-PVTZ-JKFIT
  @DF-RKS Final Energy:  -115.72590870460155
    Total Energy =                       -115.7259087046015509
  Basis Set: CC-PV(T+D)Z
    Blend: CC-PV(T+D)Z
  Basis Set: (CC-PV(T+D)Z AUX)
    Blend: CC-PVTZ-JKFIT
  @DF-RKS Final Energy:  -115.72590657350827
    Total Energy =                       -115.7259065735082686
  Basis Set: CC-PV(T+D)Z
    Blend: CC-PV(T+D)Z
  Basis Set: (CC-PV(T+D)Z AUX)
    Blend: CC-PVTZ-JKFIT
  @DF-RKS Final Energy:  -115.72591512538175
    Total Energy =                       -115.7259151253817464
  @DF-RKS Final Energy:  -115.72590248117574
    Total Energy =                       -115.7259024811757371
  @DF-RKS Final Energy:  -115.72591704821058
    Total Energy =                       -115.7259170482105759
  @DF-RKS Final Energy:  -115.72589466215678
    Total Energy =                       -115.7258946621567759
  @DF-RKS Final Energy:  -115.72590655056602
    Total Energy =                       -115.7259065505660232
  @DF-RKS Final Energy:  -115.72591037900109
    Total Energy =                       -115.7259103790010926
  @DF-RKS Final Energy:  -115.72590455288190
    Total Energy =                       -115.7259045528819144
  @DF-RKS Final Energy:  -115.72591227060636
    Total Energy =                       -115.7259122706063579
  @DF-RKS Final Energy:  -115.72590095816871
    Total Energy =                       -115.7259009581687224
  @DF-RKS Final Energy:  -115.72591615162580
    Total Energy =                       -115.7259161516258104
  @DF-RKS Final Energy:  -115.72589398113028
    Total Energy =                       -115.7258939811302838
  @DF-RKS Final Energy:  -115.72591870880801
    Total Energy =                       -115.7259187088080097
  @DF-RKS Final Energy:  -115.72591095313176
    Total Energy =                       -115.7259109531317591
  @DF-RKS Final Energy:  -115.72589381914430
    Total Energy =                       -115.7258938191443036
  @DF-RKS Final Energy:  -115.72593764820401
    Total Energy =                       -115.7259376482040096
  @DF-RKS Final Energy:  -115.72593533915169
    Total Energy =                       -115.7259353391516896
  @DF-RKS Final Energy:  -115.72593604701157
    Total Energy =                       -115.7259360470115723
  **** Optimization is complete! (in 3 steps) ****
    Final optimized geometry and variables:
  @DF-RKS Final Energy:  -115.72593152434382
    Total Energy =                       -115.7259315243438209
  @DF-RKS Final Energy:  -115.72593052394690
    Total Energy =                       -115.7259305239469143
  @DF-RKS Final Energy:  -115.72592861934682
    Total Energy =                       -115.7259286193468171
  @DF-RKS Final Energy:  -115.72592906795199
    Total Energy =                       -115.7259290679519950
  @DF-RKS Final Energy:  -115.72593732701212
    Total Energy =                       -115.7259373270121046
  @DF-RKS Final Energy:  -115.72593785654379
    Total Energy =                       -115.7259378565437942
  @DF-RKS Final Energy:  -115.72593821049350
    Total Energy =                       -115.7259382104934815
  @DF-RKS Final Energy:  -115.72593719089647
    Total Energy =                       -115.7259371908964738
  @DF-RKS Final Energy:  -115.72593466398529
    Total Energy =                       -115.7259346639852708
  @DF-RKS Final Energy:  -115.72593466396089
    Total Energy =                       -115.7259346639608850
  @DF-RKS Final Energy:  -115.72593813821508
    Total Energy =                       -115.7259381382150849
  @DF-RKS Final Energy:  -115.72593813829711
    Total Energy =                       -115.7259381382971242
  @DF-RKS Final Energy:  -115.72593873605902
    Total Energy =                       -115.7259387360590068
  @DF-RKS Final Energy:  -115.72593873609385
    Total Energy =                       -115.7259387360938518
  @DF-RKS Final Energy:  -115.72593793997062
    Total Energy =                       -115.7259379399706205
  @DF-RKS Final Energy:  -115.72593793993684
    Total Energy =                       -115.7259379399368413
  Basis Set: CC-PV(T+D)Z
    Blend: CC-PV(T+D)Z
  Basis Set: (CC-PV(T+D)Z AUX)
    Blend: CC-PVTZ-JKFIT
  @DF-RKS Final Energy:  -115.72593711336101
    Total Energy =                       -115.7259371133610131
  Basis Set: CC-PV(T+D)Z
    Blend: CC-PV(T+D)Z
  Basis Set: (CC-PV(T+D)Z AUX)
    Blend: CC-PVTZ-JKFIT
  @DF-RKS Final Energy:  -115.72593711333651
    Total Energy =                       -115.7259371133365136
  Multiplicity = 1
  Basis Set: CC-PV(T+D)Z
    Blend: CC-PV(T+D)Z
  Basis Set: (CC-PV(T+D)Z AUX)
    Blend: CC-PVTZ-JKFIT
  @DF-RKS Final Energy:  -115.72593393004290
    Total Energy =                       -115.7259339300429133
    Molecular point group: c1

    Geometry (in Angstrom), charge = 0, multiplicity = 1:

       Center              X                  Y                   Z               Mass
    ------------   -----------------  -----------------  -----------------  -----------------
         C           -0.030116784883     0.725871682787    -0.000000000000    12.000000000000
         H           -1.075330134019     1.038378348543    -0.000000000000     1.007825032230
         H            0.451858195790     1.141440266307     0.891074574766     1.007825032230
         H            0.454125096886     1.145254392326    -0.893113909182     1.007825032230
         O           -0.022812182876    -0.691895699175     0.000201112095    15.994914619570
         H            0.889988135976    -0.987015938596    -0.001152460476     1.007825032230

  Charge       = 0
  Multiplicity = 1
  Basis Set: CC-PV(T+D)Z
    Blend: CC-PV(T+D)Z
  Basis Set: (CC-PV(T+D)Z AUX)
    Blend: CC-PVTZ-JKFIT

    Orbital Energies [Eh]
    ---------------------

    Doubly Occupied:

       1A    -19.208160     2A    -10.308962     3A     -1.146128
       4A     -0.807427     5A     -0.617887     6A     -0.550362
       7A     -0.532837     8A     -0.441421     9A     -0.380336

  @DF-RKS Final Energy:  -115.72593393008798

   => Energetics <=

    Nuclear Repulsion Energy =             40.3228262736516285
    One-Electron Energy =                -237.0162852421574087
    Two-Electron Energy =                  91.6066002338661463
    DFT Exchange-Correlation Energy =     -10.7127193367572531
    Empirical Dispersion Energy =           0.0000000000000000
    VV10 Nonlocal Energy =                  0.0736441413088971
    Total Energy =                       -115.7259339300879901

  Dipole Moment: [D]
     X:     1.3578      Y:     0.9105      Z:     0.0008     Total:     1.6348

  Vibration                       7                   8                   9
  Freq [cm^-1]                 301.0281           1071.2883           1103.9133
  Irrep                          App                  Ap                  Ap
  Reduced mass [u]              1.0699              1.3680              3.0256
  Force const [mDyne/A]         0.0571              0.9250              2.1724

  Vibration                       10                  11                  12
  Freq [cm^-1]                1178.2887           1382.7481           1487.0581
  Irrep                          App                  Ap                  Ap
  Reduced mass [u]              1.2711              1.2857              1.1469
  Force const [mDyne/A]         1.0397              1.4483              1.4942

  Vibration                       13                  14                  15
  Freq [cm^-1]                1505.7741           1516.3784           3015.8246
  Irrep                          App                  Ap                  Ap
  Reduced mass [u]              1.0469              1.0448              1.0358
  Force const [mDyne/A]         1.3985              1.4154              5.5506

  Vibration                       16                  17                  18
  Freq [cm^-1]                3069.1706           3134.3774           3888.7104
  Irrep                          App                  Ap                  Ap
  Reduced mass [u]              1.1054              1.0987              1.0665
  Force const [mDyne/A]         6.1349              6.3598              9.5021

  ==> Thermochemistry Components <==

  Entropy, S
    Electronic S            0.000 [cal/(mol K)]        0.000 [J/(mol K)]       0.00000000 [mEh/K] (multiplicity = 1)
    Translational S        36.324 [cal/(mol K)]      151.980 [J/(mol K)]       0.05788598 [mEh/K] (mol. weight = 32.0262 [u], P = 101325.00 [Pa])
    Rotational S           18.982 [cal/(mol K)]       79.422 [J/(mol K)]       0.03025042 [mEh/K] (symmetry no. = 1)
    Vibrational S           1.642 [cal/(mol K)]        6.870 [J/(mol K)]       0.00261682 [mEh/K]
  Total S                  56.949 [cal/(mol K)]      238.273 [J/(mol K)]       0.09075322 [mEh/K]
  Correction S              0.000 [cal/(mol K)]        0.000 [J/(mol K)]       0.00000000 [mEh/K]

  Constant volume heat capacity, Cv
    Electronic Cv           0.000 [cal/(mol K)]        0.000 [J/(mol K)]       0.00000000 [mEh/K]
    Translational Cv        2.981 [cal/(mol K)]       12.472 [J/(mol K)]       0.00475022 [mEh/K]
    Rotational Cv           2.981 [cal/(mol K)]       12.472 [J/(mol K)]       0.00475022 [mEh/K]
    Vibrational Cv          2.809 [cal/(mol K)]       11.751 [J/(mol K)]       0.00447567 [mEh/K]
  Total Cv                  8.770 [cal/(mol K)]       36.694 [J/(mol K)]       0.01397610 [mEh/K]
  Correction Cv             0.000 [cal/(mol K)]        0.000 [J/(mol K)]       0.00000000 [mEh/K]

  Constant pressure heat capacity, Cp
    Electronic Cp           0.000 [cal/(mol K)]        0.000 [J/(mol K)]       0.00000000 [mEh/K]
    Translational Cp        4.968 [cal/(mol K)]       20.786 [J/(mol K)]       0.00791703 [mEh/K]
    Rotational Cp           2.981 [cal/(mol K)]       12.472 [J/(mol K)]       0.00475022 [mEh/K]
    Vibrational Cp          2.809 [cal/(mol K)]       11.751 [J/(mol K)]       0.00447567 [mEh/K]
  Total Cp                 10.757 [cal/(mol K)]       45.009 [J/(mol K)]       0.01714291 [mEh/K]
  Correction Cp             0.000 [cal/(mol K)]        0.000 [J/(mol K)]       0.00000000 [mEh/K]

  ==> Thermochemistry Energy Analysis <==

  Raw electronic energy, E0
  Total E0, Electronic energy at well bottom at 0 [K]                 -115.72593920 [Eh]

  Zero-point energy, ZPE_vib = Sum_i nu_i / 2
    Electronic ZPE          0.000 [kcal/mol]        0.000 [kJ/mol]       0.00000000 [Eh]
    Translational ZPE       0.000 [kcal/mol]        0.000 [kJ/mol]       0.00000000 [Eh]
    Rotational ZPE          0.000 [kcal/mol]        0.000 [kJ/mol]       0.00000000 [Eh]
    Vibrational ZPE        32.386 [kcal/mol]      135.504 [kJ/mol]       0.05161089 [Eh]       11327.280 [cm^-1]
  Correction ZPE           32.386 [kcal/mol]      135.504 [kJ/mol]       0.05161089 [Eh]       11327.280 [cm^-1]
  Total ZPE, Electronic energy at 0 [K]                               -115.67432832 [Eh]

  Thermal Energy, E (includes ZPE)
    Electronic E            0.000 [kcal/mol]        0.000 [kJ/mol]       0.00000000 [Eh]
    Translational E         0.889 [kcal/mol]        3.718 [kJ/mol]       0.00141628 [Eh]
    Rotational E            0.889 [kcal/mol]        3.718 [kJ/mol]       0.00141628 [Eh]
    Vibrational E          32.708 [kcal/mol]      136.849 [kJ/mol]       0.05212307 [Eh]
  Correction E             34.485 [kcal/mol]      144.286 [kJ/mol]       0.05495562 [Eh]
  Total E, Electronic energy at  298.15 [K]                           -115.67098358 [Eh]

  Enthalpy, H_trans = E_trans + k_B * T
    Electronic H            0.000 [kcal/mol]        0.000 [kJ/mol]       0.00000000 [Eh]
    Translational H         1.481 [kcal/mol]        6.197 [kJ/mol]       0.00236046 [Eh]
    Rotational H            0.889 [kcal/mol]        3.718 [kJ/mol]       0.00141628 [Eh]
    Vibrational H          32.708 [kcal/mol]      136.849 [kJ/mol]       0.05212307 [Eh]
  Correction H             35.078 [kcal/mol]      146.765 [kJ/mol]       0.05589980 [Eh]
  Total H, Enthalpy at  298.15 [K]                                    -115.67003940 [Eh]

  Gibbs free energy, G = H - T * S
    Electronic G            0.000 [kcal/mol]        0.000 [kJ/mol]       0.00000000 [Eh]
    Translational G        -9.349 [kcal/mol]      -39.115 [kJ/mol]      -0.01489824 [Eh]
    Rotational G           -4.771 [kcal/mol]      -19.961 [kJ/mol]      -0.00760288 [Eh]
    Vibrational G          32.218 [kcal/mol]      134.801 [kJ/mol]       0.05134286 [Eh]
  Correction G             18.098 [kcal/mol]       75.724 [kJ/mol]       0.02884173 [Eh]
  Total G, Free enthalpy at  298.15 [K]                               -115.69709747 [Eh]

*** Psi4 exiting successfully. Buy a developer a beer!
