                               Psi4 1.3.2 release

  ==> Input File <==

--------------------------------------------------------------------------
memory 144 GB

molecule {
0 3
S 0.0000000000 0.0000000000 0.0000000000
S 0.0000000000 0.0000000000 1.8968845900
}

set reference uks
set dynamic_level 1
set basis cc-pV(T+d)Z

optimize("wB97X-V")
frequencies("wB97X-V")
--------------------------------------------------------------------------

    Molecular point group: d2h
  Charge       = 0
  Multiplicity = 3
  Basis Set: CC-PV(T+D)Z
    Blend: CC-PV(T+D)Z
  Basis Set: (CC-PV(T+D)Z AUX)
    Blend: CC-PVTZ-JKFIT
  @DF-UKS Final Energy:  -796.27693454461200
    Total Energy =                       -796.2769345446121179
    Molecular point group: d2h
  Basis Set: CC-PV(T+D)Z
    Blend: CC-PV(T+D)Z
  Basis Set: (CC-PV(T+D)Z AUX)
    Blend: CC-PVTZ-JKFIT
  @DF-UKS Final Energy:  -796.27691734270911
    Total Energy =                       -796.2769173427089981
  Basis Set: CC-PV(T+D)Z
    Blend: CC-PV(T+D)Z
  Basis Set: (CC-PV(T+D)Z AUX)
    Blend: CC-PVTZ-JKFIT
  @DF-UKS Final Energy:  -796.27695121734814
    Total Energy =                       -796.2769512173481417
  Basis Set: CC-PV(T+D)Z
    Blend: CC-PV(T+D)Z
  Basis Set: (CC-PV(T+D)Z AUX)
    Blend: CC-PVTZ-JKFIT
  @DF-UKS Final Energy:  -796.27717494664762
    Total Energy =                       -796.2771749466473921
  @DF-UKS Final Energy:  -796.27716965199591
    Total Energy =                       -796.2771696519962461
  @DF-UKS Final Energy:  -796.27717967473745
    Total Energy =                       -796.2771796747374538
  @DF-UKS Final Energy:  -796.27719685681234
    Total Energy =                       -796.2771968568124521
  @DF-UKS Final Energy:  -796.27719681142116
    Total Energy =                       -796.2771968114210495
  @DF-UKS Final Energy:  -796.27719631914624
    Total Energy =                       -796.2771963191462419
  **** Optimization is complete! (in 3 steps) ****
    Final optimized geometry and variables:
  @DF-UKS Final Energy:  -796.27719685681268
    Total Energy =                       -796.2771968568126795
  @DF-UKS Final Energy:  -796.27719681142094
    Total Energy =                       -796.2771968114210495
  Basis Set: CC-PV(T+D)Z
    Blend: CC-PV(T+D)Z
  Basis Set: (CC-PV(T+D)Z AUX)
    Blend: CC-PVTZ-JKFIT
  @DF-UKS Final Energy:  -796.27719631914692
    Total Energy =                       -796.2771963191469240
  Basis Set: CC-PV(T+D)Z
    Blend: CC-PV(T+D)Z
  Basis Set: (CC-PV(T+D)Z AUX)
    Blend: CC-PVTZ-JKFIT
  @DF-UKS Final Energy:  -796.27719685681279
    Total Energy =                       -796.2771968568129068
  Multiplicity = 3
  Basis Set: CC-PV(T+D)Z
    Blend: CC-PV(T+D)Z
  Basis Set: (CC-PV(T+D)Z AUX)
    Blend: CC-PVTZ-JKFIT
  @DF-UKS Final Energy:  -796.27719681142082
    Total Energy =                       -796.2771968114207084
    Molecular point group: d2h

    Geometry (in Angstrom), charge = 0, multiplicity = 3:

       Center              X                  Y                   Z               Mass
    ------------   -----------------  -----------------  -----------------  -----------------
         S            0.000000000000     0.000000000000    -0.937881156612    31.972071174400
         S            0.000000000000     0.000000000000     0.937881156612    31.972071174400

  Charge       = 0
  Multiplicity = 3
  Basis Set: CC-PV(T+D)Z
    Blend: CC-PV(T+D)Z
  Basis Set: (CC-PV(T+D)Z AUX)
    Blend: CC-PVTZ-JKFIT

    Orbital Energies [Eh]
    ---------------------

    Alpha Occupied:

       1B1u  -88.940959     1Ag   -88.940950     2Ag    -8.095281
       2B1u   -8.095081     1B2u   -6.049839     1B3u   -6.049839
       1B2g   -6.049783     1B3g   -6.049783     3Ag    -6.049455
       3B1u   -6.048567     4Ag    -0.975742     4B1u   -0.754187
       5Ag    -0.501426     2B2u   -0.490912     2B3u   -0.490912
       2B3g   -0.341080     2B2g   -0.341080

    Alpha Virtual:

       5B1u    0.086208     6Ag     0.260430     3B2u    0.299965
       3B3u    0.299965     6B1u    0.327404     7Ag     0.347407
       1B1g    0.347408     8Ag     0.380260     4B2u    0.382225
       4B3u    0.382225     3B3g    0.409715     3B2g    0.409715
       7B1u    0.482474     1Au     0.482475     8B1u    0.653647
       9Ag     0.696227     4B3g    0.716704     4B2g    0.716704
       9B1u    1.017007    10Ag     1.424303     5B3u    1.439546
       5B2u    1.439546    11Ag     1.477628     2B1g    1.477632
      10B1u    1.548217     2Au     1.548221     3B1g    1.556059
      12Ag     1.556061    11B1u    1.633289     5B3g    1.640270
       5B2g    1.640270     6B2u    1.672547     6B3u    1.672547
       6B3g    1.775088     6B2g    1.775088     7B3u    1.787593
       7B2u    1.787593    13Ag     1.920153     8B3u    1.991435
       8B2u    1.991435     7B2g    2.009290     7B3g    2.009290
       3Au     2.035945    12B1u    2.035949    13B1u    2.095331
       8B2g    2.647093     8B3g    2.647093    14Ag     2.671946
      14B1u    2.873984    15Ag     3.445459    15B1u    4.679865
       4B1g    6.724674    16Ag     6.724692     9B2u    6.753950
       9B3u    6.753950     4Au     6.765454    16B1u    6.765471
      17Ag     6.807055     9B3g    6.843293     9B2g    6.843293
      17B1u    7.305102

    Beta Occupied:

       1B1u  -88.935480     1Ag   -88.935474     2Ag    -8.090062
       2B1u   -8.089787     3Ag    -6.046026     3B1u   -6.045128
       1B3u   -6.038708     1B2u   -6.038708     1B2g   -6.038633
       1B3g   -6.038633     4Ag    -0.947053     4B1u   -0.686339
       5Ag    -0.476759     2B2u   -0.428493     2B3u   -0.428493

    Beta Virtual:

       2B2g   -0.052430     2B3g   -0.052430     5B1u    0.102291
       6Ag     0.266517     3B2u    0.314368     3B3u    0.314368
       6B1u    0.337778     1B1g    0.378551     7Ag     0.378551
       8Ag     0.389378     4B2u    0.415868     4B3u    0.415868
       3B3g    0.429293     3B2g    0.429293     7B1u    0.534915
       1Au     0.534916     8B1u    0.671675     9Ag     0.716333
       4B3g    0.741814     4B2g    0.741814     9B1u    1.030943
      10Ag     1.437150     5B3u    1.454709     5B2u    1.454709
      11Ag     1.510379     2B1g    1.510380    10B1u    1.577313
       2Au     1.577314     3B1g    1.578729    12Ag     1.578731
      11B1u    1.645856     5B3g    1.656144     5B2g    1.656144
       6B2u    1.711458     6B3u    1.711458     7B3u    1.807944
       7B2u    1.807944     6B3g    1.817255     6B2g    1.817255
      13Ag     1.930467     8B3u    2.020091     8B2u    2.020091
       7B2g    2.038632     7B3g    2.038632     3Au     2.064598
      12B1u    2.064602    13B1u    2.111631     8B2g    2.667476
       8B3g    2.667476    14Ag     2.683859    14B1u    2.885877
      15Ag     3.462739    15B1u    4.693031     4B1g    6.733851
      16Ag     6.733869     9B2u    6.758735     9B3u    6.758735
       4Au     6.775023    16B1u    6.775041    17Ag     6.810720
       9B3g    6.848501     9B2g    6.848501    17B1u    7.310689

    Final Occupation by Irrep:
             Ag   B1g   B2g   B3g    Au   B1u   B2u   B3u
    DOCC [     5,    0,    1,    1,    0,    4,    2,    2 ]
    SOCC [     0,    0,    1,    1,    0,    0,    0,    0 ]

  @DF-UKS Final Energy:  -796.27719631914727

   => Energetics <=

    Nuclear Repulsion Energy =             72.2209658316045875
    One-Electron Energy =               -1243.0670536088823610
    Two-Electron Energy =                 413.1580672075867255
    DFT Exchange-Correlation Energy =     -38.7227854030711285
    Empirical Dispersion Energy =           0.0000000000000000
    VV10 Nonlocal Energy =                  0.1336096536149672
    Total Energy =                       -796.2771963191471514

  UHF NO Occupations:
  HONO-2 :    2B3u 1.9971370
  HONO-1 :    2B3g 1.0000000
  HONO-0 :    2B2g 1.0000000
  LUNO+0 :    3B2u 0.0028630
  LUNO+1 :    3B3u 0.0028630
  LUNO+2 :    5B1u 0.0007937
  LUNO+3 :    6 Ag 0.0004961

Computation Completed

Properties will be evaluated at   0.000000,   0.000000,   0.000000 [a0]

Properties computed using the SCF density matrix

  Nuclear Dipole Moment: [e a0]
     X:     0.0000      Y:     0.0000      Z:     0.0000

  Electronic Dipole Moment: [e a0]
     X:     0.0000      Y:     0.0000      Z:     0.0000

  Dipole Moment: [e a0]
     X:     0.0000      Y:     0.0000      Z:     0.0000     Total:     0.0000

  Dipole Moment: [D]
     X:     0.0000      Y:     0.0000      Z:     0.0000     Total:     0.0000

*** tstop() called on bp1-compute00105.data.bp.acrc.priv at Tue Apr 27 17:42:35 2021
Module time:
	user time   =     107.89 seconds =       1.80 minutes
	system time =       4.87 seconds =       0.08 minutes
	total time  =          5 seconds =       0.08 minutes
Total time:
	user time   =    1315.59 seconds =      21.93 minutes
	system time =      63.59 seconds =       1.06 minutes
	total time  =         59 seconds =       0.98 minutes

         ----------------------------------------------------------
                                   FINDIF
                     R. A. King and Jonathon Misiewicz
         ---------------------------------------------------------

  Computing second-derivative from energies using projected,
  symmetry-adapted, cartesian coordinates.

  3 energies passed in, including the reference geometry.
    Using 3-point formula.
    Energy without displacement: -796.2771968568
    Check energies below for precision!
    0: -1 :      -796.2771968114
    0: 1  :      -796.2771963191

-------------------------------------------------------------

  ==> Harmonic Vibrational Analysis <==

  non-mass-weighted Hessian:       Symmetric? True   Hermitian? True   Lin Dep Dim?  5 (0)
  projection of translations (True) and rotations (True) removed 5 degrees of freedom (5)
  total projector:                 Symmetric? True   Hermitian? True   Lin Dep Dim?  5 (5)
  mass-weighted Hessian:           Symmetric? True   Hermitian? True   Lin Dep Dim?  5 (0)
  pre-proj  low-frequency mode:    0.0000  [cm^-1]
  pre-proj  low-frequency mode:    0.0000  [cm^-1]
  pre-proj  low-frequency mode:    0.0000  [cm^-1]
  pre-proj  low-frequency mode:    0.0000  [cm^-1]
  pre-proj  low-frequency mode:    0.0000  [cm^-1]
  pre-proj  all modes:['0.0000' '0.0000' '0.0000' '0.0000' '0.0000' '785.0367']
  projected mass-weighted Hessian: Symmetric? True   Hermitian? True   Lin Dep Dim?  5 (5)
  post-proj low-frequency mode:    0.0000i [cm^-1] (TR)
  post-proj low-frequency mode:    0.0000  [cm^-1] (TR)
  post-proj low-frequency mode:    0.0000  [cm^-1] (TR)
  post-proj low-frequency mode:    0.0000  [cm^-1] (TR)
  post-proj low-frequency mode:    0.0000  [cm^-1] (TR)
  post-proj  all modes:['0.0000i' '0.0000' '0.0000' '0.0000' '0.0000' '785.0367']

  Vibration                       6
  Freq [cm^-1]                 785.0367
  Irrep                           Ag
  Reduced mass [u]             31.9721
  Force const [mDyne/A]        11.6092
  Turning point v=0 [a0]        0.0693
  RMS dev v=0 [a0 u^1/2]        0.2769
  Char temp [K]               1129.4930
  ----------------------------------------------------------------------------------
      1   S                0.00  0.00  0.71
      2   S                0.00  0.00 -0.71

  ==> Thermochemistry Components <==

  Entropy, S
    Electronic S            2.183 [cal/(mol K)]        9.134 [J/(mol K)]       0.00347910 [mEh/K] (multiplicity = 3)
    Translational S        38.385 [cal/(mol K)]      160.603 [J/(mol K)]       0.06117054 [mEh/K] (mol. weight = 63.9441 [u], P = 101325.00 [Pa])
    Rotational S           13.605 [cal/(mol K)]       56.923 [J/(mol K)]       0.02168095 [mEh/K] (symmetry no. = 2)
    Vibrational S           0.220 [cal/(mol K)]        0.920 [J/(mol K)]       0.00035032 [mEh/K]
  Total S                  54.393 [cal/(mol K)]      227.581 [J/(mol K)]       0.08668090 [mEh/K]
  Correction S              0.000 [cal/(mol K)]        0.000 [J/(mol K)]       0.00000000 [mEh/K]

  Constant volume heat capacity, Cv
    Electronic Cv           0.000 [cal/(mol K)]        0.000 [J/(mol K)]       0.00000000 [mEh/K]
    Translational Cv        2.981 [cal/(mol K)]       12.472 [J/(mol K)]       0.00475022 [mEh/K]
    Rotational Cv           1.987 [cal/(mol K)]        8.314 [J/(mol K)]       0.00316681 [mEh/K]
    Vibrational Cv          0.676 [cal/(mol K)]        2.827 [J/(mol K)]       0.00107684 [mEh/K]
  Total Cv                  5.644 [cal/(mol K)]       23.613 [J/(mol K)]       0.00899386 [mEh/K]
  Correction Cv             0.000 [cal/(mol K)]        0.000 [J/(mol K)]       0.00000000 [mEh/K]

  Constant pressure heat capacity, Cp
    Electronic Cp           0.000 [cal/(mol K)]        0.000 [J/(mol K)]       0.00000000 [mEh/K]
    Translational Cp        4.968 [cal/(mol K)]       20.786 [J/(mol K)]       0.00791703 [mEh/K]
    Rotational Cp           1.987 [cal/(mol K)]        8.314 [J/(mol K)]       0.00316681 [mEh/K]
    Vibrational Cp          0.676 [cal/(mol K)]        2.827 [J/(mol K)]       0.00107684 [mEh/K]
  Total Cp                  7.631 [cal/(mol K)]       31.928 [J/(mol K)]       0.01216067 [mEh/K]
  Correction Cp             0.000 [cal/(mol K)]        0.000 [J/(mol K)]       0.00000000 [mEh/K]

  ==> Thermochemistry Energy Analysis <==

  Raw electronic energy, E0
  Total E0, Electronic energy at well bottom at 0 [K]                 -796.27719686 [Eh]

  Zero-point energy, ZPE_vib = Sum_i nu_i / 2
    Electronic ZPE          0.000 [kcal/mol]        0.000 [kJ/mol]       0.00000000 [Eh]
    Translational ZPE       0.000 [kcal/mol]        0.000 [kJ/mol]       0.00000000 [Eh]
    Rotational ZPE          0.000 [kcal/mol]        0.000 [kJ/mol]       0.00000000 [Eh]
    Vibrational ZPE         1.122 [kcal/mol]        4.696 [kJ/mol]       0.00178845 [Eh]         392.518 [cm^-1]
  Correction ZPE            1.122 [kcal/mol]        4.696 [kJ/mol]       0.00178845 [Eh]         392.518 [cm^-1]
  Total ZPE, Electronic energy at 0 [K]                               -796.27540841 [Eh]

  Thermal Energy, E (includes ZPE)
    Electronic E            0.000 [kcal/mol]        0.000 [kJ/mol]       0.00000000 [Eh]
    Translational E         0.889 [kcal/mol]        3.718 [kJ/mol]       0.00141628 [Eh]
    Rotational E            0.592 [kcal/mol]        2.479 [kJ/mol]       0.00094418 [Eh]
    Vibrational E           1.174 [kcal/mol]        4.913 [kJ/mol]       0.00187128 [Eh]
  Correction E              2.655 [kcal/mol]       11.110 [kJ/mol]       0.00423174 [Eh]
  Total E, Electronic energy at  298.15 [K]                           -796.27296512 [Eh]

  Enthalpy, H_trans = E_trans + k_B * T
    Electronic H            0.000 [kcal/mol]        0.000 [kJ/mol]       0.00000000 [Eh]
    Translational H         1.481 [kcal/mol]        6.197 [kJ/mol]       0.00236046 [Eh]
    Rotational H            0.592 [kcal/mol]        2.479 [kJ/mol]       0.00094418 [Eh]
    Vibrational H           1.174 [kcal/mol]        4.913 [kJ/mol]       0.00187128 [Eh]
  Correction H              3.248 [kcal/mol]       13.589 [kJ/mol]       0.00517592 [Eh]
  Total H, Enthalpy at  298.15 [K]                                    -796.27202093 [Eh]

  Gibbs free energy, G = H - T * S
    Electronic G           -0.651 [kcal/mol]       -2.723 [kJ/mol]      -0.00103729 [Eh]
    Translational G        -9.963 [kcal/mol]      -41.686 [kJ/mol]      -0.01587754 [Eh]
    Rotational G           -3.464 [kcal/mol]      -14.493 [kJ/mol]      -0.00551999 [Eh]
    Vibrational G           1.109 [kcal/mol]        4.639 [kJ/mol]       0.00176683 [Eh]
  Correction G            -12.969 [kcal/mol]      -54.264 [kJ/mol]      -0.02066799 [Eh]
  Total G, Free enthalpy at  298.15 [K]                               -796.29786484 [Eh]

    Psi4 stopped on: Tuesday, 27 April 2021 05:42PM
    Psi4 wall time for execution: 0:00:59.15

*** Psi4 exiting successfully. Buy a developer a beer!
