                               Psi4 1.3.2 release

  ==> Input File <==

--------------------------------------------------------------------------
memory 144 GB

molecule {
0 3
S 0.0000000000 0.0000000000 0.0000000000
O 0.0000000000 0.0000000000 1.4862145500
}

set reference uks
set dynamic_level 1
set basis cc-pV(T+d)Z

optimize("wB97X-V")
frequencies("wB97X-V")
--------------------------------------------------------------------------

    Molecular point group: c2v
  Charge       = 0
  Multiplicity = 3
  Basis Set: CC-PV(T+D)Z
    Blend: CC-PV(T+D)Z
  Basis Set: (CC-PV(T+D)Z AUX)
    Blend: CC-PVTZ-JKFIT
  @DF-UKS Final Energy:  -473.32139825202728
    Total Energy =                       -473.3213982520272793
    Molecular point group: c2v
  Basis Set: CC-PV(T+D)Z
    Blend: CC-PV(T+D)Z
  Basis Set: (CC-PV(T+D)Z AUX)
    Blend: CC-PVTZ-JKFIT
  @DF-UKS Final Energy:  -473.32138459274785
    Total Energy =                       -473.3213845927477337
  Basis Set: CC-PV(T+D)Z
    Blend: CC-PV(T+D)Z
  Basis Set: (CC-PV(T+D)Z AUX)
    Blend: CC-PVTZ-JKFIT
  @DF-UKS Final Energy:  -473.32141055680478
    Total Energy =                       -473.3214105568047785
  Basis Set: CC-PV(T+D)Z
    Blend: CC-PV(T+D)Z
  Basis Set: (CC-PV(T+D)Z AUX)
    Blend: CC-PVTZ-JKFIT
  @DF-UKS Final Energy:  -473.32145486887794
    Total Energy =                       -473.3214548688778791
  @DF-UKS Final Energy:  -473.32145054707235
    Total Energy =                       -473.3214505470722884
  @DF-UKS Final Energy:  -473.32145779155826
    Total Energy =                       -473.3214577915582595
  @DF-UKS Final Energy:  -473.32145953893081
    Total Energy =                       -473.3214595389309238
  @DF-UKS Final Energy:  -473.32145891254771
    Total Energy =                       -473.3214589125477119
  @DF-UKS Final Energy:  -473.32145874878967
    Total Energy =                       -473.3214587487896665
  **** Optimization is complete! (in 3 steps) ****
    Final optimized geometry and variables:
  @DF-UKS Final Energy:  -473.32145953893092
    Total Energy =                       -473.3214595389308670
  @DF-UKS Final Energy:  -473.32145891254794
    Total Energy =                       -473.3214589125479392
  Basis Set: CC-PV(T+D)Z
    Blend: CC-PV(T+D)Z
  Basis Set: (CC-PV(T+D)Z AUX)
    Blend: CC-PVTZ-JKFIT
  @DF-UKS Final Energy:  -473.32145874879006
    Total Energy =                       -473.3214587487899507
  Basis Set: CC-PV(T+D)Z
    Blend: CC-PV(T+D)Z
  Basis Set: (CC-PV(T+D)Z AUX)
    Blend: CC-PVTZ-JKFIT
  @DF-UKS Final Energy:  -473.32145953893070
    Total Energy =                       -473.3214595389306965
  Multiplicity = 3
  Basis Set: CC-PV(T+D)Z
    Blend: CC-PV(T+D)Z
  Basis Set: (CC-PV(T+D)Z AUX)
    Blend: CC-PVTZ-JKFIT
  @DF-UKS Final Energy:  -473.32145891254766
    Total Energy =                       -473.3214589125476550
    Molecular point group: c2v

    Geometry (in Angstrom), charge = 0, multiplicity = 3:

       Center              X                  Y                   Z               Mass
    ------------   -----------------  -----------------  -----------------  -----------------
         S            0.000000000000     0.000000000000    -0.492770244348    31.972071174400
         O            0.000000000000     0.000000000000     0.984993399442    15.994914619570

  Charge       = 0
  Multiplicity = 3
  Basis Set: CC-PV(T+D)Z
    Blend: CC-PV(T+D)Z
  Basis Set: (CC-PV(T+D)Z AUX)
    Blend: CC-PVTZ-JKFIT

    Orbital Energies [Eh]
    ---------------------

    Alpha Occupied:

       1A1   -88.978170     2A1   -19.286797     3A1    -8.129413
       1B1    -6.084713     1B2    -6.084713     4A1    -6.083402
       5A1    -1.222651     6A1    -0.808322     2B2    -0.572747
       2B1    -0.572747     7A1    -0.563660     3B1    -0.362476
       3B2    -0.362476

    Alpha Virtual:

       8A1     0.099145     4B1     0.351232     4B2     0.351232
       9A1     0.376297     1A2     0.384211    10A1     0.384211
      11A1     0.401939     5B1     0.487128     5B2     0.487128
      12A1     0.594977     6B2     0.737182     6B1     0.737182
      13A1     0.887981    14A1     1.240666    15A1     1.408482
       2A2     1.408483     7B1     1.479380     7B2     1.479380
       3A2     1.498206    16A1     1.498207    17A1     1.558637
       8B1     1.668806     8B2     1.668806     9B1     1.695689
       9B2     1.695689     4A2     1.920723    18A1     1.920724
      10B1     1.968202    10B2     1.968202    19A1     1.998044
      20A1     2.249964    11B2     2.467303    11B1     2.467303
      21A1     2.563537    22A1     3.607721    12B2     3.809288
      12B1     3.809288    23A1     4.946044    13B2     5.177391
      13B1     5.177391     5A2     5.249106    24A1     5.249114
      14B2     5.348223    14B1     5.348223    25A1     5.482358
       6A2     6.286801    26A1     6.286839    15B2     6.574864
      15B1     6.574864    27A1     6.709335     7A2     6.709359
      28A1     6.755958    16B1     7.001931    16B2     7.001931
      29A1     7.449332    30A1     8.998464

    Beta Occupied:

       1A1   -88.971893     2A1   -19.268206     3A1    -8.123300
       4A1    -6.079691     1B1    -6.071653     1B2    -6.071653
       5A1    -1.182067     6A1    -0.734617     7A1    -0.529703
       2B1    -0.496446     2B2    -0.496446

    Beta Virtual:

       3B1    -0.031673     3B2    -0.031673     8A1     0.117200
       4B2     0.368428     4B1     0.368428     9A1     0.390283
      10A1     0.415631     1A2     0.434727    11A1     0.434727
       5B1     0.530713     5B2     0.530713    12A1     0.604417
       6B1     0.760809     6B2     0.760809    13A1     0.911179
      14A1     1.257647    15A1     1.444014     2A2     1.444015
       7B1     1.498221     7B2     1.498221    16A1     1.529718
       3A2     1.529719    17A1     1.578287     8B1     1.694413
       8B2     1.694413     9B1     1.746518     9B2     1.746518
      18A1     1.957787     4A2     1.957788    10B2     2.003608
      10B1     2.003608    19A1     2.018678    20A1     2.264728
      11B1     2.492867    11B2     2.492867    21A1     2.583812
      22A1     3.626597    12B1     3.866615    12B2     3.866615
      23A1     4.965759    13B1     5.223981    13B2     5.223981
       5A2     5.280795    24A1     5.280803    14B1     5.372168
      14B2     5.372168    25A1     5.503819     6A2     6.362266
      26A1     6.362300    15B1     6.610540    15B2     6.610540
      27A1     6.720991     7A2     6.721012    28A1     6.778533
      16B1     7.018662    16B2     7.018662    29A1     7.472525
      30A1     9.035274

    Final Occupation by Irrep:
             A1    A2    B1    B2
    DOCC [     7,    0,    2,    2 ]
    SOCC [     0,    0,    1,    1 ]

  @DF-UKS Final Energy:  -473.32145874879012

   => Energetics <=

    Nuclear Repulsion Energy =             45.8359381423690095
    One-Electron Energy =                -743.8553807213259006
    Two-Electron Energy =                 250.0816959721983892
    DFT Exchange-Correlation Energy =     -25.4845400802868127
    Empirical Dispersion Energy =           0.0000000000000000
    VV10 Nonlocal Energy =                  0.1008279382551847
    Total Energy =                       -473.3214587487900644

  UHF NO Occupations:
  HONO-2 :    2 B2 1.9979505
  HONO-1 :    3 B1 1.0000000
  HONO-0 :    3 B2 1.0000000
  LUNO+0 :    4 B2 0.0020495
  LUNO+1 :    4 B1 0.0020495
  LUNO+2 :    8 A1 0.0010687
  LUNO+3 :    9 A1 0.0002354

Computation Completed

Properties will be evaluated at   0.000000,   0.000000,   0.000000 [a0]

Properties computed using the SCF density matrix

  Nuclear Dipole Moment: [e a0]
     X:     0.0000      Y:     0.0000      Z:    -0.0083

  Electronic Dipole Moment: [e a0]
     X:     0.0000      Y:     0.0000      Z:    -0.6091

  Dipole Moment: [e a0]
     X:     0.0000      Y:     0.0000      Z:    -0.6174     Total:     0.6174

  Dipole Moment: [D]
     X:     0.0000      Y:     0.0000      Z:    -1.5692     Total:     1.5692

*** tstop() called on bp1-compute00116.data.bp.acrc.priv at Tue Apr 27 17:42:49 2021
Module time:
	user time   =     123.60 seconds =       2.06 minutes
	system time =       5.78 seconds =       0.10 minutes
	total time  =          5 seconds =       0.08 minutes
Total time:
	user time   =    1477.36 seconds =      24.62 minutes
	system time =      72.34 seconds =       1.21 minutes
	total time  =         65 seconds =       1.08 minutes

         ----------------------------------------------------------
                                   FINDIF
                     R. A. King and Jonathon Misiewicz
         ---------------------------------------------------------

  Computing second-derivative from energies using projected,
  symmetry-adapted, cartesian coordinates.

  3 energies passed in, including the reference geometry.
    Using 3-point formula.
    Energy without displacement: -473.3214595389
    Check energies below for precision!
    0: -1 :      -473.3214589125
    0: 1  :      -473.3214587488

-------------------------------------------------------------

  ==> Harmonic Vibrational Analysis <==

  non-mass-weighted Hessian:       Symmetric? True   Hermitian? True   Lin Dep Dim?  5 (0)
  projection of translations (True) and rotations (True) removed 5 degrees of freedom (5)
  total projector:                 Symmetric? True   Hermitian? True   Lin Dep Dim?  5 (5)
  mass-weighted Hessian:           Symmetric? True   Hermitian? True   Lin Dep Dim?  5 (0)
  pre-proj  low-frequency mode:    0.0000i [cm^-1]
  pre-proj  low-frequency mode:    0.0000  [cm^-1]
  pre-proj  low-frequency mode:    0.0000  [cm^-1]
  pre-proj  low-frequency mode:    0.0000  [cm^-1]
  pre-proj  low-frequency mode:    0.0000  [cm^-1]
  pre-proj  all modes:['0.0000i' '0.0000' '0.0000' '0.0000' '0.0000' '1223.6189']
  projected mass-weighted Hessian: Symmetric? True   Hermitian? True   Lin Dep Dim?  5 (5)
  post-proj low-frequency mode:    0.0000i [cm^-1] (TR)
  post-proj low-frequency mode:    0.0000  [cm^-1] (TR)
  post-proj low-frequency mode:    0.0000  [cm^-1] (TR)
  post-proj low-frequency mode:    0.0000  [cm^-1] (TR)
  post-proj low-frequency mode:    0.0000  [cm^-1] (TR)
  post-proj  all modes:['0.0000i' '0.0000' '0.0000' '0.0000' '0.0000' '1223.6189']

  Vibration                       6
  Freq [cm^-1]                1223.6189
  Irrep                           A1
  Reduced mass [u]             19.1932
  Force const [mDyne/A]        16.9313
  Turning point v=0 [a0]        0.0716
  RMS dev v=0 [a0 u^1/2]        0.2218
  Char temp [K]               1760.5152
  ----------------------------------------------------------------------------------
      1   S                0.00  0.00 -0.45
      2   O                0.00  0.00  0.89

  ==> Thermochemistry Components <==

  Entropy, S
    Electronic S            2.183 [cal/(mol K)]        9.134 [J/(mol K)]       0.00347910 [mEh/K] (multiplicity = 3)
    Translational S        37.528 [cal/(mol K)]      157.018 [J/(mol K)]       0.05980487 [mEh/K] (mol. weight = 47.9670 [u], P = 101325.00 [Pa])
    Rotational S           13.230 [cal/(mol K)]       55.356 [J/(mol K)]       0.02108392 [mEh/K] (symmetry no. = 1)
    Vibrational S           0.038 [cal/(mol K)]        0.157 [J/(mol K)]       0.00005977 [mEh/K]
  Total S                  52.979 [cal/(mol K)]      221.665 [J/(mol K)]       0.08442765 [mEh/K]
  Correction S              0.000 [cal/(mol K)]        0.000 [J/(mol K)]       0.00000000 [mEh/K]

  Constant volume heat capacity, Cv
    Electronic Cv           0.000 [cal/(mol K)]        0.000 [J/(mol K)]       0.00000000 [mEh/K]
    Translational Cv        2.981 [cal/(mol K)]       12.472 [J/(mol K)]       0.00475022 [mEh/K]
    Rotational Cv           1.987 [cal/(mol K)]        8.314 [J/(mol K)]       0.00316681 [mEh/K]
    Vibrational Cv          0.190 [cal/(mol K)]        0.795 [J/(mol K)]       0.00030268 [mEh/K]
  Total Cv                  5.158 [cal/(mol K)]       21.581 [J/(mol K)]       0.00821971 [mEh/K]
  Correction Cv             0.000 [cal/(mol K)]        0.000 [J/(mol K)]       0.00000000 [mEh/K]

  Constant pressure heat capacity, Cp
    Electronic Cp           0.000 [cal/(mol K)]        0.000 [J/(mol K)]       0.00000000 [mEh/K]
    Translational Cp        4.968 [cal/(mol K)]       20.786 [J/(mol K)]       0.00791703 [mEh/K]
    Rotational Cp           1.987 [cal/(mol K)]        8.314 [J/(mol K)]       0.00316681 [mEh/K]
    Vibrational Cp          0.190 [cal/(mol K)]        0.795 [J/(mol K)]       0.00030268 [mEh/K]
  Total Cp                  7.145 [cal/(mol K)]       29.895 [J/(mol K)]       0.01138652 [mEh/K]
  Correction Cp             0.000 [cal/(mol K)]        0.000 [J/(mol K)]       0.00000000 [mEh/K]

  ==> Thermochemistry Energy Analysis <==

  Raw electronic energy, E0
  Total E0, Electronic energy at well bottom at 0 [K]                 -473.32145954 [Eh]

  Zero-point energy, ZPE_vib = Sum_i nu_i / 2
    Electronic ZPE          0.000 [kcal/mol]        0.000 [kJ/mol]       0.00000000 [Eh]
    Translational ZPE       0.000 [kcal/mol]        0.000 [kJ/mol]       0.00000000 [Eh]
    Rotational ZPE          0.000 [kcal/mol]        0.000 [kJ/mol]       0.00000000 [Eh]
    Vibrational ZPE         1.749 [kcal/mol]        7.319 [kJ/mol]       0.00278761 [Eh]         611.809 [cm^-1]
  Correction ZPE            1.749 [kcal/mol]        7.319 [kJ/mol]       0.00278761 [Eh]         611.809 [cm^-1]
  Total ZPE, Electronic energy at 0 [K]                               -473.31867193 [Eh]

  Thermal Energy, E (includes ZPE)
    Electronic E            0.000 [kcal/mol]        0.000 [kJ/mol]       0.00000000 [Eh]
    Translational E         0.889 [kcal/mol]        3.718 [kJ/mol]       0.00141628 [Eh]
    Rotational E            0.592 [kcal/mol]        2.479 [kJ/mol]       0.00094418 [Eh]
    Vibrational E           1.759 [kcal/mol]        7.359 [kJ/mol]       0.00280285 [Eh]
  Correction E              3.240 [kcal/mol]       13.556 [kJ/mol]       0.00516331 [Eh]
  Total E, Electronic energy at  298.15 [K]                           -473.31629623 [Eh]

  Enthalpy, H_trans = E_trans + k_B * T
    Electronic H            0.000 [kcal/mol]        0.000 [kJ/mol]       0.00000000 [Eh]
    Translational H         1.481 [kcal/mol]        6.197 [kJ/mol]       0.00236046 [Eh]
    Rotational H            0.592 [kcal/mol]        2.479 [kJ/mol]       0.00094418 [Eh]
    Vibrational H           1.759 [kcal/mol]        7.359 [kJ/mol]       0.00280285 [Eh]
  Correction H              3.833 [kcal/mol]       16.035 [kJ/mol]       0.00610750 [Eh]
  Total H, Enthalpy at  298.15 [K]                                    -473.31535204 [Eh]

  Gibbs free energy, G = H - T * S
    Electronic G           -0.651 [kcal/mol]       -2.723 [kJ/mol]      -0.00103729 [Eh]
    Translational G        -9.708 [kcal/mol]      -40.617 [kJ/mol]      -0.01547036 [Eh]
    Rotational G           -3.352 [kcal/mol]      -14.025 [kJ/mol]      -0.00534199 [Eh]
    Vibrational G           1.748 [kcal/mol]        7.312 [kJ/mol]       0.00278503 [Eh]
  Correction G            -11.963 [kcal/mol]      -50.054 [kJ/mol]      -0.01906461 [Eh]
  Total G, Free enthalpy at  298.15 [K]                               -473.34052415 [Eh]

    Psi4 stopped on: Tuesday, 27 April 2021 05:42PM
    Psi4 wall time for execution: 0:01:05.58

*** Psi4 exiting successfully. Buy a developer a beer!
