                               Psi4 1.3.2 release

  ==> Input File <==

--------------------------------------------------------------------------
memory 144 GB

molecule {
0 1
B 0.0000000000 0.0000000000 0.0000000000
H 0.0000000000 0.0000000000 1.1899000000
H 1.0304836280 0.0000000000 -0.5949500000
H -1.0304836280 -0.0000000000 -0.5949500000
}

set dynamic_level 1
set basis aug-cc-pV(D+d)Z

optimize("wB97X-V")
frequencies("wB97X-V")
--------------------------------------------------------------------------

    Molecular point group: c2v
  Charge       = 0
  Multiplicity = 1
  Basis Set: AUG-CC-PV(D+D)Z
    Blend: AUG-CC-PV(D+D)Z
  Basis Set: (AUG-CC-PV(D+D)Z AUX)
    Blend: AUG-CC-PVDZ-JKFIT
  @DF-RKS Final Energy:   -26.59549847565046
    Total Energy =                        -26.5954984756504587
    Molecular point group: c2v
  Basis Set: AUG-CC-PV(D+D)Z
    Blend: AUG-CC-PV(D+D)Z
  Basis Set: (AUG-CC-PV(D+D)Z AUX)
    Blend: AUG-CC-PVDZ-JKFIT
  @DF-RKS Final Energy:   -26.59549619471717
    Total Energy =                        -26.5954961947171675
  Basis Set: AUG-CC-PV(D+D)Z
    Blend: AUG-CC-PV(D+D)Z
  Basis Set: (AUG-CC-PV(D+D)Z AUX)
    Blend: AUG-CC-PVDZ-JKFIT
  @DF-RKS Final Energy:   -26.59549618329716
    Total Energy =                        -26.5954961832971577
  Basis Set: AUG-CC-PV(D+D)Z
    Blend: AUG-CC-PV(D+D)Z
  Basis Set: (AUG-CC-PV(D+D)Z AUX)
    Blend: AUG-CC-PVDZ-JKFIT
  @DF-RKS Final Energy:   -26.59545497047621
    Total Energy =                        -26.5954549704762115
  @DF-RKS Final Energy:   -26.59553664580278
    Total Energy =                        -26.5955366458027846
  @DF-RKS Final Energy:   -26.59545497677581
    Total Energy =                        -26.5954549767758124
  @DF-RKS Final Energy:   -26.59553663952977
    Total Energy =                        -26.5955366395297652
  @DF-RKS Final Energy:   -26.59575695910042
    Total Energy =                        -26.5957569591004201
  @DF-RKS Final Energy:   -26.59575479414424
    Total Energy =                        -26.5957547941442378
  @DF-RKS Final Energy:   -26.59575479280236
    Total Energy =                        -26.5957547928023601
  @DF-RKS Final Energy:   -26.59575482321982
    Total Energy =                        -26.5957548232198207
  @DF-RKS Final Energy:   -26.59575406920522
    Total Energy =                        -26.5957540692052206
  @DF-RKS Final Energy:   -26.59575482340192
    Total Energy =                        -26.5957548234019221
  @DF-RKS Final Energy:   -26.59575406930951
    Total Energy =                        -26.5957540693095105
  **** Optimization is complete! (in 2 steps) ****
    Final optimized geometry and variables:
  @DF-RKS Final Energy:   -26.59575695905160
    Total Energy =                        -26.5957569590515988
  @DF-RKS Final Energy:   -26.59575479417929
    Total Energy =                        -26.5957547941792924
  @DF-RKS Final Energy:   -26.59575479295650
    Total Energy =                        -26.5957547929564981
  @DF-RKS Final Energy:   -26.59575482307301
    Total Energy =                        -26.5957548230730119
  @DF-RKS Final Energy:   -26.59575406896668
    Total Energy =                        -26.5957540689666772
  @DF-RKS Final Energy:   -26.59575482328966
    Total Energy =                        -26.5957548232896563
  @DF-RKS Final Energy:   -26.59575406924959
    Total Energy =                        -26.5957540692495904
  @DF-RKS Final Energy:   -26.59575695905160
    Total Energy =                        -26.5957569590515988
  @DF-RKS Final Energy:   -26.59575479417929
    Total Energy =                        -26.5957547941792889
  @DF-RKS Final Energy:   -26.59575479295652
    Total Energy =                        -26.5957547929565195
  @DF-RKS Final Energy:   -26.59575482307302
    Total Energy =                        -26.5957548230730225
  @DF-RKS Final Energy:   -26.59575406896666
    Total Energy =                        -26.5957540689666594
  @DF-RKS Final Energy:   -26.59575482328967
    Total Energy =                        -26.5957548232896741
  @DF-RKS Final Energy:   -26.59575406924962
    Total Energy =                        -26.5957540692496224
  @DF-RKS Final Energy:   -26.59575384932614
    Total Energy =                        -26.5957538493261367
  @DF-RKS Final Energy:   -26.59575460996426
    Total Energy =                        -26.5957546099642634
  @DF-RKS Final Energy:   -26.59574996906258
    Total Energy =                        -26.5957499690625809
  @DF-RKS Final Energy:   -26.59575069384942
    Total Energy =                        -26.5957506938494248
  @DF-RKS Final Energy:   -26.59575004349740
    Total Energy =                        -26.5957500434974001
  @DF-RKS Final Energy:   -26.59575153548360
    Total Energy =                        -26.5957515354835969
  @DF-RKS Final Energy:   -26.59575479305769
    Total Energy =                        -26.5957547930576901
  Basis Set: AUG-CC-PV(D+D)Z
    Blend: AUG-CC-PV(D+D)Z
  Basis Set: (AUG-CC-PV(D+D)Z AUX)
    Blend: AUG-CC-PVDZ-JKFIT
  @DF-RKS Final Energy:   -26.59575497332295
    Total Energy =                        -26.5957549733229506
  Basis Set: AUG-CC-PV(D+D)Z
    Blend: AUG-CC-PV(D+D)Z
  Basis Set: (AUG-CC-PV(D+D)Z AUX)
    Blend: AUG-CC-PVDZ-JKFIT
  @DF-RKS Final Energy:   -26.59575005072127
    Total Energy =                        -26.5957500507212679
  Multiplicity = 1
  Basis Set: AUG-CC-PV(D+D)Z
    Blend: AUG-CC-PV(D+D)Z
  Basis Set: (AUG-CC-PV(D+D)Z AUX)
    Blend: AUG-CC-PVDZ-JKFIT
  @DF-RKS Final Energy:   -26.59575005069947
    Total Energy =                        -26.5957500506994684
    Molecular point group: cs

    Geometry (in Angstrom), charge = 0, multiplicity = 1:

       Center              X                  Y                   Z               Mass
    ------------   -----------------  -----------------  -----------------  -----------------
         B            0.000000000000    -0.000370145531    -0.000000289546    11.009305360000
         H            0.000000000000     0.001347798793     1.203810249497     1.007825032230
         H            1.042527707976     0.001347803307    -0.601903543275     1.007825032230
         H           -1.042527707976     0.001347803307    -0.601903543275     1.007825032230

  Charge       = 0
  Multiplicity = 1
  Basis Set: AUG-CC-PV(D+D)Z
    Blend: AUG-CC-PV(D+D)Z
  Basis Set: (AUG-CC-PV(D+D)Z AUX)
    Blend: AUG-CC-PVDZ-JKFIT

    Orbital Energies [Eh]
    ---------------------

    Doubly Occupied:

       1Ap    -6.880442     2Ap    -0.635812     3Ap    -0.456985
       1App   -0.456985

  @DF-RKS Final Energy:   -26.59575633737159

   => Energetics <=

    Nuclear Repulsion Energy =              7.3551679755530666
    One-Electron Energy =                 -48.9049496413035811
    Two-Electron Energy =                  18.2289583179150085
    DFT Exchange-Correlation Energy =      -3.3087933394003293
    Empirical Dispersion Energy =           0.0000000000000000
    VV10 Nonlocal Energy =                  0.0338603498642445
    Total Energy =                        -26.5957563373715900

  Dipole Moment: [D]
     X:     0.0000      Y:    -0.0036      Z:     0.0000     Total:     0.0036

  Vibration                       7                   8                   9
  Freq [cm^-1]                1146.3909           1190.4559           1211.7671
  Irrep                           B2                  A1                  B1
  Reduced mass [u]              1.2531              1.1074              1.1093
  Force const [mDyne/A]         0.9703              0.9247              0.9597

  Vibration                       10                  11                  12
  Freq [cm^-1]                2553.6502           2695.1554           2703.3741
  Irrep                           A1                  A1                  B1
  Reduced mass [u]              1.0078              1.1271              1.1251
  Force const [mDyne/A]         3.8722              4.8236              4.8447

  ==> Thermochemistry Components <==

  Entropy, S
    Electronic S            0.000 [cal/(mol K)]        0.000 [J/(mol K)]       0.00000000 [mEh/K] (multiplicity = 1)
    Translational S        33.864 [cal/(mol K)]      141.688 [J/(mol K)]       0.05396630 [mEh/K] (mol. weight = 14.0328 [u], P = 101325.00 [Pa])
    Rotational S           13.246 [cal/(mol K)]       55.421 [J/(mol K)]       0.02110885 [mEh/K] (symmetry no. = 2)
    Vibrational S           0.134 [cal/(mol K)]        0.561 [J/(mol K)]       0.00021386 [mEh/K]
  Total S                  47.245 [cal/(mol K)]      197.671 [J/(mol K)]       0.07528901 [mEh/K]
  Correction S              0.000 [cal/(mol K)]        0.000 [J/(mol K)]       0.00000000 [mEh/K]

  Constant volume heat capacity, Cv
    Electronic Cv           0.000 [cal/(mol K)]        0.000 [J/(mol K)]       0.00000000 [mEh/K]
    Translational Cv        2.981 [cal/(mol K)]       12.472 [J/(mol K)]       0.00475022 [mEh/K]
    Rotational Cv           2.981 [cal/(mol K)]       12.472 [J/(mol K)]       0.00475022 [mEh/K]
    Vibrational Cv          0.654 [cal/(mol K)]        2.736 [J/(mol K)]       0.00104208 [mEh/K]
  Total Cv                  6.616 [cal/(mol K)]       27.679 [J/(mol K)]       0.01054251 [mEh/K]
  Correction Cv             0.000 [cal/(mol K)]        0.000 [J/(mol K)]       0.00000000 [mEh/K]

  Constant pressure heat capacity, Cp
    Electronic Cp           0.000 [cal/(mol K)]        0.000 [J/(mol K)]       0.00000000 [mEh/K]
    Translational Cp        4.968 [cal/(mol K)]       20.786 [J/(mol K)]       0.00791703 [mEh/K]
    Rotational Cp           2.981 [cal/(mol K)]       12.472 [J/(mol K)]       0.00475022 [mEh/K]
    Vibrational Cp          0.654 [cal/(mol K)]        2.736 [J/(mol K)]       0.00104208 [mEh/K]
  Total Cp                  8.603 [cal/(mol K)]       35.994 [J/(mol K)]       0.01370932 [mEh/K]
  Correction Cp             0.000 [cal/(mol K)]        0.000 [J/(mol K)]       0.00000000 [mEh/K]

  ==> Thermochemistry Energy Analysis <==

  Raw electronic energy, E0
  Total E0, Electronic energy at well bottom at 0 [K]                  -26.59575696 [Eh]

  Zero-point energy, ZPE_vib = Sum_i nu_i / 2
    Electronic ZPE          0.000 [kcal/mol]        0.000 [kJ/mol]       0.00000000 [Eh]
    Translational ZPE       0.000 [kcal/mol]        0.000 [kJ/mol]       0.00000000 [Eh]
    Rotational ZPE          0.000 [kcal/mol]        0.000 [kJ/mol]       0.00000000 [Eh]
    Vibrational ZPE        16.441 [kcal/mol]       68.790 [kJ/mol]       0.02620074 [Eh]        5750.397 [cm^-1]
  Correction ZPE           16.441 [kcal/mol]       68.790 [kJ/mol]       0.02620074 [Eh]        5750.397 [cm^-1]
  Total ZPE, Electronic energy at 0 [K]                                -26.56955622 [Eh]

  Thermal Energy, E (includes ZPE)
    Electronic E            0.000 [kcal/mol]        0.000 [kJ/mol]       0.00000000 [Eh]
    Translational E         0.889 [kcal/mol]        3.718 [kJ/mol]       0.00141628 [Eh]
    Rotational E            0.889 [kcal/mol]        3.718 [kJ/mol]       0.00141628 [Eh]
    Vibrational E          16.475 [kcal/mol]       68.932 [kJ/mol]       0.02625499 [Eh]
  Correction E             18.253 [kcal/mol]       76.369 [kJ/mol]       0.02908754 [Eh]
  Total E, Electronic energy at  298.15 [K]                            -26.56666941 [Eh]

  Enthalpy, H_trans = E_trans + k_B * T
    Electronic H            0.000 [kcal/mol]        0.000 [kJ/mol]       0.00000000 [Eh]
    Translational H         1.481 [kcal/mol]        6.197 [kJ/mol]       0.00236046 [Eh]
    Rotational H            0.889 [kcal/mol]        3.718 [kJ/mol]       0.00141628 [Eh]
    Vibrational H          16.475 [kcal/mol]       68.932 [kJ/mol]       0.02625499 [Eh]
  Correction H             18.845 [kcal/mol]       78.848 [kJ/mol]       0.03003173 [Eh]
  Total H, Enthalpy at  298.15 [K]                                     -26.56572523 [Eh]

  Gibbs free energy, G = H - T * S
    Electronic G            0.000 [kcal/mol]        0.000 [kJ/mol]       0.00000000 [Eh]
    Translational G        -8.615 [kcal/mol]      -36.047 [kJ/mol]      -0.01372959 [Eh]
    Rotational G           -3.061 [kcal/mol]      -12.805 [kJ/mol]      -0.00487733 [Eh]
    Vibrational G          16.435 [kcal/mol]       68.765 [kJ/mol]       0.02619123 [Eh]
  Correction G              4.759 [kcal/mol]       19.913 [kJ/mol]       0.00758431 [Eh]
  Total G, Free enthalpy at  298.15 [K]                                -26.58817265 [Eh]

*** Psi4 exiting successfully. Buy a developer a beer!
