                               Psi4 1.3.2 release

  ==> Input File <==

--------------------------------------------------------------------------
memory 144 GB

molecule {
0 1
C 0.0000000000 0.0000000000 0.0000000000
C 0.0000000000 0.0000000000 1.2065000000
H 0.0000000000 -0.0000000000 2.2699000000
H -0.0000000000 -0.0000000000 -1.0634000000
}

set dynamic_level 1
set basis aug-cc-pV(D+d)Z

optimize("wB97X-V")
frequencies("wB97X-V")
--------------------------------------------------------------------------

    Molecular point group: d2h
  Charge       = 0
  Multiplicity = 1
  Basis Set: AUG-CC-PV(D+D)Z
    Blend: AUG-CC-PV(D+D)Z
  Basis Set: (AUG-CC-PV(D+D)Z AUX)
    Blend: AUG-CC-PVDZ-JKFIT
  @DF-RKS Final Energy:   -77.30864444247734
    Total Energy =                        -77.3086444424773305
    Molecular point group: d2h
  Basis Set: AUG-CC-PV(D+D)Z
    Blend: AUG-CC-PV(D+D)Z
  Basis Set: (AUG-CC-PV(D+D)Z AUX)
    Blend: AUG-CC-PVDZ-JKFIT
  @DF-RKS Final Energy:   -77.30863116847689
    Total Energy =                        -77.3086311684769072
  Basis Set: AUG-CC-PV(D+D)Z
    Blend: AUG-CC-PV(D+D)Z
  Basis Set: (AUG-CC-PV(D+D)Z AUX)
    Blend: AUG-CC-PVDZ-JKFIT
  @DF-RKS Final Energy:   -77.30865187627019
    Total Energy =                        -77.3086518762701900
  Basis Set: AUG-CC-PV(D+D)Z
    Blend: AUG-CC-PV(D+D)Z
  Basis Set: (AUG-CC-PV(D+D)Z AUX)
    Blend: AUG-CC-PVDZ-JKFIT
  @DF-RKS Final Energy:   -77.30858129937570
    Total Energy =                        -77.3085812993756889
  @DF-RKS Final Energy:   -77.30869677789538
    Total Energy =                        -77.3086967778953777
  @DF-RKS Final Energy:   -77.30880439401957
    Total Energy =                        -77.3088043940195604
  @DF-RKS Final Energy:   -77.30880324969495
    Total Energy =                        -77.3088032496949324
  @DF-RKS Final Energy:   -77.30879982055586
    Total Energy =                        -77.3087998205558762
  @DF-RKS Final Energy:   -77.30880549160413
    Total Energy =                        -77.3088054916041472
  @DF-RKS Final Energy:   -77.30879310044595
    Total Energy =                        -77.3087931004459534
  @DF-RKS Final Energy:   -77.30880629852324
    Total Energy =                        -77.3088062985232227
  @DF-RKS Final Energy:   -77.30880337610070
    Total Energy =                        -77.3088033761007125
  @DF-RKS Final Energy:   -77.30880345803425
    Total Energy =                        -77.3088034580342480
  @DF-RKS Final Energy:   -77.30880129918124
    Total Energy =                        -77.3088012991812548
  @DF-RKS Final Energy:   -77.30880100677304
    Total Energy =                        -77.3088010067730522
  **** Optimization is complete! (in 3 steps) ****
    Final optimized geometry and variables:
  @DF-RKS Final Energy:   -77.30880629852327
    Total Energy =                        -77.3088062985232796
  @DF-RKS Final Energy:   -77.30880340440390
    Total Energy =                        -77.3088034044039034
  @DF-RKS Final Energy:   -77.30880345126182
    Total Energy =                        -77.3088034512618094
  @DF-RKS Final Energy:   -77.30880130921315
    Total Energy =                        -77.3088013092131519
  @DF-RKS Final Energy:   -77.30880100869072
    Total Energy =                        -77.3088010086907218
  @DF-RKS Final Energy:   -77.30880629852324
    Total Energy =                        -77.3088062985232369
  @DF-RKS Final Energy:   -77.30880340440393
    Total Energy =                        -77.3088034044039176
  @DF-RKS Final Energy:   -77.30880345126199
    Total Energy =                        -77.3088034512619942
  @DF-RKS Final Energy:   -77.30880130921315
    Total Energy =                        -77.3088013092131519
  @DF-RKS Final Energy:   -77.30880100869081
    Total Energy =                        -77.3088010086908071
  @DF-RKS Final Energy:   -77.30879508690559
    Total Energy =                        -77.3087950869055902
  @DF-RKS Final Energy:   -77.30879532121638
    Total Energy =                        -77.3087953212163796
  @DF-RKS Final Energy:   -77.30880608269011
    Total Energy =                        -77.3088060826901398
  Basis Set: AUG-CC-PV(D+D)Z
    Blend: AUG-CC-PV(D+D)Z
  Basis Set: (AUG-CC-PV(D+D)Z AUX)
    Blend: AUG-CC-PVDZ-JKFIT
  @DF-RKS Final Energy:   -77.30880608221793
    Total Energy =                        -77.3088060822179273
  Basis Set: AUG-CC-PV(D+D)Z
    Blend: AUG-CC-PV(D+D)Z
  Basis Set: (AUG-CC-PV(D+D)Z AUX)
    Blend: AUG-CC-PVDZ-JKFIT
  @DF-RKS Final Energy:   -77.30880072537403
    Total Energy =                        -77.3088007253740273
  Multiplicity = 1
  Basis Set: AUG-CC-PV(D+D)Z
    Blend: AUG-CC-PV(D+D)Z
  Basis Set: (AUG-CC-PV(D+D)Z AUX)
    Blend: AUG-CC-PVDZ-JKFIT
  @DF-RKS Final Energy:   -77.30880598887013
    Total Energy =                        -77.3088059888701338
    Molecular point group: c2v

    Geometry (in Angstrom), charge = 0, multiplicity = 1:

       Center              X                  Y                   Z               Mass
    ------------   -----------------  -----------------  -----------------  -----------------
         C           -0.000150333491     0.000000000000    -0.604054203953    12.000000000000
         C           -0.000150333491     0.000000000000     0.604054203953    12.000000000000
         H            0.001789995126     0.000000000000     1.677732584362     1.007825032230
         H            0.001789995126     0.000000000000    -1.677732584362     1.007825032230

  Charge       = 0
  Multiplicity = 1
  Basis Set: AUG-CC-PV(D+D)Z
    Blend: AUG-CC-PV(D+D)Z
  Basis Set: (AUG-CC-PV(D+D)Z AUX)
    Blend: AUG-CC-PVDZ-JKFIT

    Orbital Energies [Eh]
    ---------------------

    Doubly Occupied:

       1A1   -10.299207     1B2   -10.296862     2A1    -0.887376
       2B2    -0.685805     3A1    -0.606387     1B1    -0.398175
       4A1    -0.398175

  @DF-RKS Final Energy:   -77.30880600985756

   => Energetics <=

    Nuclear Repulsion Energy =             24.6237899724822640
    One-Electron Energy =                -151.4994637752266442
    Two-Electron Energy =                  57.3761403600937712
    DFT Exchange-Correlation Energy =      -7.8670123022534177
    Empirical Dispersion Energy =           0.0000000000000000
    VV10 Nonlocal Energy =                  0.0577397350464734
    Total Energy =                        -77.3088060098575625

  Dipole Moment: [D]
     X:     0.0041      Y:     0.0000      Z:     0.0000     Total:     0.0041

  Vibration                       6                   7                   8
  Freq [cm^-1]                 675.4735            676.2120            781.1723
  Irrep                          B2g                 B3g                 B3u
  Reduced mass [u]              1.5751              1.5751              1.0848
  Force const [mDyne/A]         0.4234              0.4243              0.3900

  Vibration                       9                   10                  11
  Freq [cm^-1]                 809.0717           2102.3043           3432.4135
  Irrep                          B2u                  Ag                 B1u
  Reduced mass [u]              1.0848              3.7246              1.0848
  Force const [mDyne/A]         0.4184              9.6988              7.5302

  Vibration                       12
  Freq [cm^-1]                3537.4791
  Irrep                           Ag
  Reduced mass [u]              1.2390
  Force const [mDyne/A]         9.1353

  ==> Thermochemistry Components <==

  Entropy, S
    Electronic S            0.000 [cal/(mol K)]        0.000 [J/(mol K)]       0.00000000 [mEh/K] (multiplicity = 1)
    Translational S        35.704 [cal/(mol K)]      149.387 [J/(mol K)]       0.05689862 [mEh/K] (mol. weight = 26.0157 [u], P = 101325.00 [Pa])
    Rotational S           10.900 [cal/(mol K)]       45.607 [J/(mol K)]       0.01737064 [mEh/K] (symmetry no. = 2)
    Vibrational S           1.096 [cal/(mol K)]        4.586 [J/(mol K)]       0.00174684 [mEh/K]
  Total S                  47.701 [cal/(mol K)]      199.580 [J/(mol K)]       0.07601610 [mEh/K]
  Correction S              0.000 [cal/(mol K)]        0.000 [J/(mol K)]       0.00000000 [mEh/K]

  Constant volume heat capacity, Cv
    Electronic Cv           0.000 [cal/(mol K)]        0.000 [J/(mol K)]       0.00000000 [mEh/K]
    Translational Cv        2.981 [cal/(mol K)]       12.472 [J/(mol K)]       0.00475022 [mEh/K]
    Rotational Cv           1.987 [cal/(mol K)]        8.314 [J/(mol K)]       0.00316681 [mEh/K]
    Vibrational Cv          3.079 [cal/(mol K)]       12.881 [J/(mol K)]       0.00490612 [mEh/K]
  Total Cv                  8.047 [cal/(mol K)]       33.667 [J/(mol K)]       0.01282315 [mEh/K]
  Correction Cv             0.000 [cal/(mol K)]        0.000 [J/(mol K)]       0.00000000 [mEh/K]

  Constant pressure heat capacity, Cp
    Electronic Cp           0.000 [cal/(mol K)]        0.000 [J/(mol K)]       0.00000000 [mEh/K]
    Translational Cp        4.968 [cal/(mol K)]       20.786 [J/(mol K)]       0.00791703 [mEh/K]
    Rotational Cp           1.987 [cal/(mol K)]        8.314 [J/(mol K)]       0.00316681 [mEh/K]
    Vibrational Cp          3.079 [cal/(mol K)]       12.881 [J/(mol K)]       0.00490612 [mEh/K]
  Total Cp                 10.034 [cal/(mol K)]       41.982 [J/(mol K)]       0.01598996 [mEh/K]
  Correction Cp             0.000 [cal/(mol K)]        0.000 [J/(mol K)]       0.00000000 [mEh/K]

  ==> Thermochemistry Energy Analysis <==

  Raw electronic energy, E0
  Total E0, Electronic energy at well bottom at 0 [K]                  -77.30880630 [Eh]

  Zero-point energy, ZPE_vib = Sum_i nu_i / 2
    Electronic ZPE          0.000 [kcal/mol]        0.000 [kJ/mol]       0.00000000 [Eh]
    Translational ZPE       0.000 [kcal/mol]        0.000 [kJ/mol]       0.00000000 [Eh]
    Rotational ZPE          0.000 [kcal/mol]        0.000 [kJ/mol]       0.00000000 [Eh]
    Vibrational ZPE        17.175 [kcal/mol]       71.860 [kJ/mol]       0.02737019 [Eh]        6007.063 [cm^-1]
  Correction ZPE           17.175 [kcal/mol]       71.860 [kJ/mol]       0.02737019 [Eh]        6007.063 [cm^-1]
  Total ZPE, Electronic energy at 0 [K]                                -77.28143610 [Eh]

  Thermal Energy, E (includes ZPE)
    Electronic E            0.000 [kcal/mol]        0.000 [kJ/mol]       0.00000000 [Eh]
    Translational E         0.889 [kcal/mol]        3.718 [kJ/mol]       0.00141628 [Eh]
    Rotational E            0.592 [kcal/mol]        2.479 [kJ/mol]       0.00094418 [Eh]
    Vibrational E          17.430 [kcal/mol]       72.926 [kJ/mol]       0.02777591 [Eh]
  Correction E             18.911 [kcal/mol]       79.123 [kJ/mol]       0.03013637 [Eh]
  Total E, Electronic energy at  298.15 [K]                            -77.27866992 [Eh]

  Enthalpy, H_trans = E_trans + k_B * T
    Electronic H            0.000 [kcal/mol]        0.000 [kJ/mol]       0.00000000 [Eh]
    Translational H         1.481 [kcal/mol]        6.197 [kJ/mol]       0.00236046 [Eh]
    Rotational H            0.592 [kcal/mol]        2.479 [kJ/mol]       0.00094418 [Eh]
    Vibrational H          17.430 [kcal/mol]       72.926 [kJ/mol]       0.02777591 [Eh]
  Correction H             19.503 [kcal/mol]       81.602 [kJ/mol]       0.03108056 [Eh]
  Total H, Enthalpy at  298.15 [K]                                     -77.27772574 [Eh]

  Gibbs free energy, G = H - T * S
    Electronic G            0.000 [kcal/mol]        0.000 [kJ/mol]       0.00000000 [Eh]
    Translational G        -9.164 [kcal/mol]      -38.342 [kJ/mol]      -0.01460386 [Eh]
    Rotational G           -2.657 [kcal/mol]      -11.119 [kJ/mol]      -0.00423487 [Eh]
    Vibrational G          17.103 [kcal/mol]       71.558 [kJ/mol]       0.02725509 [Eh]
  Correction G              5.281 [kcal/mol]       22.097 [kJ/mol]       0.00841636 [Eh]
  Total G, Free enthalpy at  298.15 [K]                                -77.30038994 [Eh]

*** Psi4 exiting successfully. Buy a developer a beer!
