                               Psi4 1.3.2 release

  ==> Input File <==

--------------------------------------------------------------------------
memory 144 GB

molecule {
0 1
C 0.0000000000 0.0000000000 0.0000000000
C 0.0000000000 0.0000000000 1.3342000000
H 0.9234041342 0.0000000000 1.8987335198
H -0.9234041342 0.0000000000 1.8987335198
H 0.9234041342 0.0000000000 -0.5645335198
H -0.9234041342 -0.0000000000 -0.5645335198
}

set dynamic_level 1
set basis aug-cc-pV(D+d)Z

optimize("wB97X-V")
frequencies("wB97X-V")
--------------------------------------------------------------------------

    Molecular point group: d2h
  Charge       = 0
  Multiplicity = 1
  Basis Set: AUG-CC-PV(D+D)Z
    Blend: AUG-CC-PV(D+D)Z
  Basis Set: (AUG-CC-PV(D+D)Z AUX)
    Blend: AUG-CC-PVDZ-JKFIT
  @DF-RKS Final Energy:   -78.56655169578495
    Total Energy =                        -78.5665516957849803
    Molecular point group: d2h
  Basis Set: AUG-CC-PV(D+D)Z
    Blend: AUG-CC-PV(D+D)Z
  Basis Set: (AUG-CC-PV(D+D)Z AUX)
    Blend: AUG-CC-PVDZ-JKFIT
  @DF-RKS Final Energy:   -78.56653438768801
    Total Energy =                        -78.5665343876880087
  Basis Set: AUG-CC-PV(D+D)Z
    Blend: AUG-CC-PV(D+D)Z
  Basis Set: (AUG-CC-PV(D+D)Z AUX)
    Blend: AUG-CC-PVDZ-JKFIT
  @DF-RKS Final Energy:   -78.56656585518365
    Total Energy =                        -78.5665658551836543
  Basis Set: AUG-CC-PV(D+D)Z
    Blend: AUG-CC-PV(D+D)Z
  Basis Set: (AUG-CC-PV(D+D)Z AUX)
    Blend: AUG-CC-PVDZ-JKFIT
  @DF-RKS Final Energy:   -78.56648609966294
    Total Energy =                        -78.5664860996629528
  @DF-RKS Final Energy:   -78.56660957834481
    Total Energy =                        -78.5666095783448242
  @DF-RKS Final Energy:   -78.56651035960068
    Total Energy =                        -78.5665103596006844
  @DF-RKS Final Energy:   -78.56658917910616
    Total Energy =                        -78.5665891791061597
  @DF-RKS Final Energy:   -78.56683648841117
    Total Energy =                        -78.5668364884111838
  @DF-RKS Final Energy:   -78.56683398033839
    Total Energy =                        -78.5668339803384015
  @DF-RKS Final Energy:   -78.56683589308268
    Total Energy =                        -78.5668358930826685
  @DF-RKS Final Energy:   -78.56683695519941
    Total Energy =                        -78.5668369551994203
  @DF-RKS Final Energy:   -78.56682874984315
    Total Energy =                        -78.5668287498431539
  @DF-RKS Final Energy:   -78.56683479599346
    Total Energy =                        -78.5668347959934579
  @DF-RKS Final Energy:   -78.56683443188672
    Total Energy =                        -78.5668344318867184
  @DF-RKS Final Energy:   -78.56683831194451
    Total Energy =                        -78.5668383119445082
  @DF-RKS Final Energy:   -78.56683644078036
    Total Energy =                        -78.5668364407803637
  @DF-RKS Final Energy:   -78.56683705918969
    Total Energy =                        -78.5668370591896803
  @DF-RKS Final Energy:   -78.56683516655065
    Total Energy =                        -78.5668351665506606
  @DF-RKS Final Energy:   -78.56683417056823
    Total Energy =                        -78.5668341705682138
  @DF-RKS Final Energy:   -78.56683591530914
    Total Energy =                        -78.5668359153091558
  **** Optimization is complete! (in 3 steps) ****
    Final optimized geometry and variables:
  @DF-RKS Final Energy:   -78.56683193865130
    Total Energy =                        -78.5668319386513048
  @DF-RKS Final Energy:   -78.56683451808161
    Total Energy =                        -78.5668345180816061
  @DF-RKS Final Energy:   -78.56683284523972
    Total Energy =                        -78.5668328452397020
  @DF-RKS Final Energy:   -78.56682976859507
    Total Energy =                        -78.5668297685950705
  @DF-RKS Final Energy:   -78.56682965848553
    Total Energy =                        -78.5668296584855312
  @DF-RKS Final Energy:   -78.56683664009708
    Total Energy =                        -78.5668366400970797
  @DF-RKS Final Energy:   -78.56683426995600
    Total Energy =                        -78.5668342699559901
  @DF-RKS Final Energy:   -78.56682904612772
    Total Energy =                        -78.5668290461277223
  @DF-RKS Final Energy:   -78.56682905196317
    Total Energy =                        -78.5668290519631398
  @DF-RKS Final Energy:   -78.56683782883155
    Total Energy =                        -78.5668378288315381
  @DF-RKS Final Energy:   -78.56683777990958
    Total Energy =                        -78.5668377799095765
  @DF-RKS Final Energy:   -78.56683623145373
    Total Energy =                        -78.5668362314537347
  @DF-RKS Final Energy:   -78.56683465591630
    Total Energy =                        -78.5668346559162956
  @DF-RKS Final Energy:   -78.56683593729689
    Total Energy =                        -78.5668359372968865
  @DF-RKS Final Energy:   -78.56683592845977
    Total Energy =                        -78.5668359284597670
  @DF-RKS Final Energy:   -78.56683784551615
    Total Energy =                        -78.5668378455161474
  Basis Set: AUG-CC-PV(D+D)Z
    Blend: AUG-CC-PV(D+D)Z
  Basis Set: (AUG-CC-PV(D+D)Z AUX)
    Blend: AUG-CC-PVDZ-JKFIT
  @DF-RKS Final Energy:   -78.56683441830762
    Total Energy =                        -78.5668344183076073
  Basis Set: AUG-CC-PV(D+D)Z
    Blend: AUG-CC-PV(D+D)Z
  Basis Set: (AUG-CC-PV(D+D)Z AUX)
    Blend: AUG-CC-PVDZ-JKFIT
  @DF-RKS Final Energy:   -78.56683680382736
    Total Energy =                        -78.5668368038273570
  Multiplicity = 1
  Basis Set: AUG-CC-PV(D+D)Z
    Blend: AUG-CC-PV(D+D)Z
  Basis Set: (AUG-CC-PV(D+D)Z AUX)
    Blend: AUG-CC-PVDZ-JKFIT
  @DF-RKS Final Energy:   -78.56683701273083
    Total Energy =                        -78.5668370127308293
    Molecular point group: c2v

    Geometry (in Angstrom), charge = 0, multiplicity = 1:

       Center              X                  Y                   Z               Mass
    ------------   -----------------  -----------------  -----------------  -----------------
         C           -0.000204817217     0.000000000000    -0.666974810271    12.000000000000
         C           -0.000204817217     0.000000000000     0.666974810271    12.000000000000
         H            0.932679032984     0.000000000000     1.236942297324     1.007825032230
         H           -0.930240309464     0.000000000000     1.239577891666     1.007825032230
         H            0.932679032984     0.000000000000    -1.236942297324     1.007825032230
         H           -0.930240309464     0.000000000000    -1.239577891666     1.007825032230

  Charge       = 0
  Multiplicity = 1
  Basis Set: AUG-CC-PV(D+D)Z
    Blend: AUG-CC-PV(D+D)Z
  Basis Set: (AUG-CC-PV(D+D)Z AUX)
    Blend: AUG-CC-PVDZ-JKFIT

    Orbital Energies [Eh]
    ---------------------

    Doubly Occupied:

       1A1   -10.287437     1B2   -10.286599     2A1    -0.894955
       2B2    -0.700874     3A1    -0.582095     4A1    -0.527397
       3B2    -0.458287     1B1    -0.376788

  @DF-RKS Final Energy:   -78.56683701406759

   => Energetics <=

    Nuclear Repulsion Energy =             33.2296157771061900
    One-Electron Energy =                -169.9096492551719848
    Two-Electron Energy =                  66.3395323708170110
    DFT Exchange-Correlation Energy =      -8.2912596631028936
    Empirical Dispersion Energy =           0.0000000000000000
    VV10 Nonlocal Energy =                  0.0649237562841005
    Total Energy =                        -78.5668370140675876

  Dipole Moment: [D]
     X:    -0.0006      Y:     0.0000      Z:     0.0000     Total:     0.0006

  Vibration                       7                   8                   9
  Freq [cm^-1]                 832.3715            992.9829           1010.5868
  Irrep                          B3u                 B2u                 B3g
  Reduced mass [u]              1.0420              1.1607              1.5175
  Force const [mDyne/A]         0.4253              0.6743              0.9131

  Vibration                       10                  11                  12
  Freq [cm^-1]                1060.5212           1236.3349           1387.4992
  Irrep                           Au                 B2g                  Ag
  Reduced mass [u]              1.0078              1.5241              1.1592
  Force const [mDyne/A]         0.6678              1.3725              1.3148

  Vibration                       13                  14                  15
  Freq [cm^-1]                1464.0091           1716.2974           3159.6675
  Irrep                          B1u                  Ag                 B1u
  Reduced mass [u]              1.1122              3.6145              1.0475
  Force const [mDyne/A]         1.4045              6.2732              6.1616

  Vibration                       16                  17                  18
  Freq [cm^-1]                3177.7401           3248.1296           3275.1025
  Irrep                           Ag                 B2g                 B3u
  Reduced mass [u]              1.0770              1.1159              1.1185
  Force const [mDyne/A]         6.4079              6.9364              7.0688

  ==> Thermochemistry Components <==

  Entropy, S
    Electronic S            0.000 [cal/(mol K)]        0.000 [J/(mol K)]       0.00000000 [mEh/K] (multiplicity = 1)
    Translational S        35.927 [cal/(mol K)]      150.318 [J/(mol K)]       0.05725309 [mEh/K] (mol. weight = 28.0313 [u], P = 101325.00 [Pa])
    Rotational S           15.887 [cal/(mol K)]       66.471 [J/(mol K)]       0.02531765 [mEh/K] (symmetry no. = 4)
    Vibrational S           0.515 [cal/(mol K)]        2.153 [J/(mol K)]       0.00081992 [mEh/K]
  Total S                  52.328 [cal/(mol K)]      218.942 [J/(mol K)]       0.08339067 [mEh/K]
  Correction S              0.000 [cal/(mol K)]        0.000 [J/(mol K)]       0.00000000 [mEh/K]

  Constant volume heat capacity, Cv
    Electronic Cv           0.000 [cal/(mol K)]        0.000 [J/(mol K)]       0.00000000 [mEh/K]
    Translational Cv        2.981 [cal/(mol K)]       12.472 [J/(mol K)]       0.00475022 [mEh/K]
    Rotational Cv           2.981 [cal/(mol K)]       12.472 [J/(mol K)]       0.00475022 [mEh/K]
    Vibrational Cv          2.078 [cal/(mol K)]        8.693 [J/(mol K)]       0.00331083 [mEh/K]
  Total Cv                  8.039 [cal/(mol K)]       33.636 [J/(mol K)]       0.01281126 [mEh/K]
  Correction Cv             0.000 [cal/(mol K)]        0.000 [J/(mol K)]       0.00000000 [mEh/K]

  Constant pressure heat capacity, Cp
    Electronic Cp           0.000 [cal/(mol K)]        0.000 [J/(mol K)]       0.00000000 [mEh/K]
    Translational Cp        4.968 [cal/(mol K)]       20.786 [J/(mol K)]       0.00791703 [mEh/K]
    Rotational Cp           2.981 [cal/(mol K)]       12.472 [J/(mol K)]       0.00475022 [mEh/K]
    Vibrational Cp          2.078 [cal/(mol K)]        8.693 [J/(mol K)]       0.00331083 [mEh/K]
  Total Cp                 10.026 [cal/(mol K)]       41.950 [J/(mol K)]       0.01597807 [mEh/K]
  Correction Cp             0.000 [cal/(mol K)]        0.000 [J/(mol K)]       0.00000000 [mEh/K]

  ==> Thermochemistry Energy Analysis <==

  Raw electronic energy, E0
  Total E0, Electronic energy at well bottom at 0 [K]                  -78.56683831 [Eh]

  Zero-point energy, ZPE_vib = Sum_i nu_i / 2
    Electronic ZPE          0.000 [kcal/mol]        0.000 [kJ/mol]       0.00000000 [Eh]
    Translational ZPE       0.000 [kcal/mol]        0.000 [kJ/mol]       0.00000000 [Eh]
    Rotational ZPE          0.000 [kcal/mol]        0.000 [kJ/mol]       0.00000000 [Eh]
    Vibrational ZPE        32.253 [kcal/mol]      134.946 [kJ/mol]       0.05139829 [Eh]       11280.621 [cm^-1]
  Correction ZPE           32.253 [kcal/mol]      134.946 [kJ/mol]       0.05139829 [Eh]       11280.621 [cm^-1]
  Total ZPE, Electronic energy at 0 [K]                                -78.51544002 [Eh]

  Thermal Energy, E (includes ZPE)
    Electronic E            0.000 [kcal/mol]        0.000 [kJ/mol]       0.00000000 [Eh]
    Translational E         0.889 [kcal/mol]        3.718 [kJ/mol]       0.00141628 [Eh]
    Rotational E            0.889 [kcal/mol]        3.718 [kJ/mol]       0.00141628 [Eh]
    Vibrational E          32.380 [kcal/mol]      135.476 [kJ/mol]       0.05160019 [Eh]
  Correction E             34.157 [kcal/mol]      142.913 [kJ/mol]       0.05443274 [Eh]
  Total E, Electronic energy at  298.15 [K]                            -78.51240557 [Eh]

  Enthalpy, H_trans = E_trans + k_B * T
    Electronic H            0.000 [kcal/mol]        0.000 [kJ/mol]       0.00000000 [Eh]
    Translational H         1.481 [kcal/mol]        6.197 [kJ/mol]       0.00236046 [Eh]
    Rotational H            0.889 [kcal/mol]        3.718 [kJ/mol]       0.00141628 [Eh]
    Vibrational H          32.380 [kcal/mol]      135.476 [kJ/mol]       0.05160019 [Eh]
  Correction H             34.750 [kcal/mol]      145.392 [kJ/mol]       0.05537693 [Eh]
  Total H, Enthalpy at  298.15 [K]                                     -78.51146138 [Eh]

  Gibbs free energy, G = H - T * S
    Electronic G            0.000 [kcal/mol]        0.000 [kJ/mol]       0.00000000 [Eh]
    Translational G        -9.230 [kcal/mol]      -38.620 [kJ/mol]      -0.01470955 [Eh]
    Rotational G           -3.848 [kcal/mol]      -16.100 [kJ/mol]      -0.00613218 [Eh]
    Vibrational G          32.226 [kcal/mol]      134.834 [kJ/mol]       0.05135573 [Eh]
  Correction G             19.148 [kcal/mol]       80.114 [kJ/mol]       0.03051400 [Eh]
  Total G, Free enthalpy at  298.15 [K]                                -78.53632431 [Eh]

*** Psi4 exiting successfully. Buy a developer a beer!
