                               Psi4 1.3.2 release

  ==> Input File <==

--------------------------------------------------------------------------
memory 144 GB

molecule {
0 1
C 0.0000000000 0.0000000000 0.0000000000
Cl 0.0000000000 0.0000000000 1.7182578700
Cl 1.6229007750 0.0000000000 -0.5644494507
}

set dynamic_level 1
set basis aug-cc-pV(D+d)Z

optimize("wB97X-V")
frequencies("wB97X-V")
--------------------------------------------------------------------------

    Molecular point group: c2v
  Charge       = 0
  Multiplicity = 1
  Basis Set: AUG-CC-PV(D+D)Z
    Blend: AUG-CC-PV(D+D)Z
  Basis Set: (AUG-CC-PV(D+D)Z AUX)
    Blend: AUG-CC-PVDZ-JKFIT
  @DF-RKS Final Energy:  -958.26799799164110
    Total Energy =                       -958.2679979916410957
    Molecular point group: c2v
  Basis Set: AUG-CC-PV(D+D)Z
    Blend: AUG-CC-PV(D+D)Z
  Basis Set: (AUG-CC-PV(D+D)Z AUX)
    Blend: AUG-CC-PVDZ-JKFIT
  @DF-RKS Final Energy:  -958.26799402362883
    Total Energy =                       -958.2679940236288303
  Basis Set: AUG-CC-PV(D+D)Z
    Blend: AUG-CC-PV(D+D)Z
  Basis Set: (AUG-CC-PV(D+D)Z AUX)
    Blend: AUG-CC-PVDZ-JKFIT
  @DF-RKS Final Energy:  -958.26800147069673
    Total Energy =                       -958.2680014706968450
  Basis Set: AUG-CC-PV(D+D)Z
    Blend: AUG-CC-PV(D+D)Z
  Basis Set: (AUG-CC-PV(D+D)Z AUX)
    Blend: AUG-CC-PVDZ-JKFIT
  @DF-RKS Final Energy:  -958.26800061172173
    Total Energy =                       -958.2680006117217317
  @DF-RKS Final Energy:  -958.26799520935924
    Total Energy =                       -958.2679952093592419
  @DF-RKS Final Energy:  -958.26801860020021
    Total Energy =                       -958.2680186002002074
  @DF-RKS Final Energy:  -958.26801649845845
    Total Energy =                       -958.2680164984584508
  @DF-RKS Final Energy:  -958.26802020240518
    Total Energy =                       -958.2680202024051823
  @DF-RKS Final Energy:  -958.26801851301900
    Total Energy =                       -958.2680185130191148
  @DF-RKS Final Energy:  -958.26801851968219
    Total Energy =                       -958.2680185196821867
  @DF-RKS Final Energy:  -958.26802305875651
    Total Energy =                       -958.2680230587566257
  @DF-RKS Final Energy:  -958.26802297162658
    Total Energy =                       -958.2680229716265785
  @DF-RKS Final Energy:  -958.26802265059143
    Total Energy =                       -958.2680226505915471
  @DF-RKS Final Energy:  -958.26802296523783
    Total Energy =                       -958.2680229652378330
  @DF-RKS Final Energy:  -958.26802298738937
    Total Energy =                       -958.2680229873894859
  **** Optimization is complete! (in 3 steps) ****
    Final optimized geometry and variables:
  @DF-RKS Final Energy:  -958.26802305823981
    Total Energy =                       -958.2680230582396916
  @DF-RKS Final Energy:  -958.26802296952678
    Total Energy =                       -958.2680229695266689
  @DF-RKS Final Energy:  -958.26802265112110
    Total Energy =                       -958.2680226511211004
  @DF-RKS Final Energy:  -958.26802296462802
    Total Energy =                       -958.2680229646281305
  @DF-RKS Final Energy:  -958.26802298662506
    Total Energy =                       -958.2680229866249420
  @DF-RKS Final Energy:  -958.26802305823946
    Total Energy =                       -958.2680230582394643
  @DF-RKS Final Energy:  -958.26802296952746
    Total Energy =                       -958.2680229695275784
  @DF-RKS Final Energy:  -958.26802265112087
    Total Energy =                       -958.2680226511209867
  @DF-RKS Final Energy:  -958.26802296462768
    Total Energy =                       -958.2680229646276757
  Basis Set: AUG-CC-PV(D+D)Z
    Blend: AUG-CC-PV(D+D)Z
  Basis Set: (AUG-CC-PV(D+D)Z AUX)
    Blend: AUG-CC-PVDZ-JKFIT
  @DF-RKS Final Energy:  -958.26802298662517
    Total Energy =                       -958.2680229866251693
  Basis Set: AUG-CC-PV(D+D)Z
    Blend: AUG-CC-PV(D+D)Z
  Basis Set: (AUG-CC-PV(D+D)Z AUX)
    Blend: AUG-CC-PVDZ-JKFIT
  @DF-RKS Final Energy:  -958.26802271862084
    Total Energy =                       -958.2680227186208413
  Multiplicity = 1
  Basis Set: AUG-CC-PV(D+D)Z
    Blend: AUG-CC-PV(D+D)Z
  Basis Set: (AUG-CC-PV(D+D)Z AUX)
    Blend: AUG-CC-PVDZ-JKFIT
  @DF-RKS Final Energy:  -958.26802301487601
    Total Energy =                       -958.2680230148760074
    Molecular point group: cs

    Geometry (in Angstrom), charge = 0, multiplicity = 1:

       Center              X                  Y                   Z               Mass
    ------------   -----------------  -----------------  -----------------  -----------------
         C            0.000000000000    -0.000680938041    -0.846767858975    12.000000000000
         CL           0.000000000000     1.396465054307     0.145372509026    34.968852682000
         CL           0.000000000000    -1.396231381885     0.145206492811    34.968852682000

  Charge       = 0
  Multiplicity = 1
  Basis Set: AUG-CC-PV(D+D)Z
    Blend: AUG-CC-PV(D+D)Z
  Basis Set: (AUG-CC-PV(D+D)Z AUX)
    Blend: AUG-CC-PVDZ-JKFIT

    Orbital Energies [Eh]
    ---------------------

    Doubly Occupied:

       1Ap  -101.582375     2Ap  -101.582099     3Ap   -10.444800
       4Ap    -9.611261     5Ap    -9.610954     6Ap    -7.365296
       7Ap    -7.365006     1App   -7.359055     2App   -7.358754
       8Ap    -7.355295     9Ap    -7.355004    10Ap    -1.080639
      11Ap    -0.994016    12Ap    -0.734344    13Ap    -0.583281
      14Ap    -0.537070     3App   -0.532635     4App   -0.458949
      15Ap    -0.438509    16Ap    -0.368667

  @DF-RKS Final Energy:  -958.26802274548675

   => Energetics <=

    Nuclear Repulsion Energy =            117.7851761247618043
    One-Electron Energy =               -1555.0430144341178220
    Two-Electron Energy =                 525.2650670010290241
    DFT Exchange-Correlation Energy =     -46.4406142382030112
    Empirical Dispersion Energy =           0.0000000000000000
    VV10 Nonlocal Energy =                  0.1653628010432957
    Total Energy =                       -958.2680227454866326

  Dipole Moment: [D]
     X:     0.0000      Y:    -0.0079      Z:     1.1204     Total:     1.1204

  Vibration                       7                   8                   9
  Freq [cm^-1]                 347.9284            760.0476            813.1110
  Irrep                           A1                  A1                  B2
  Reduced mass [u]             29.3429             14.3197             13.8694
  Force const [mDyne/A]         2.0928              4.8738              5.4027

  ==> Thermochemistry Components <==

  Entropy, S
    Electronic S            0.000 [cal/(mol K)]        0.000 [J/(mol K)]       0.00000000 [mEh/K] (multiplicity = 1)
    Translational S        39.124 [cal/(mol K)]      163.696 [J/(mol K)]       0.06234835 [mEh/K] (mol. weight = 81.9377 [u], P = 101325.00 [Pa])
    Rotational S           22.354 [cal/(mol K)]       93.529 [J/(mol K)]       0.03562346 [mEh/K] (symmetry no. = 2)
    Vibrational S           1.615 [cal/(mol K)]        6.756 [J/(mol K)]       0.00257340 [mEh/K]
  Total S                  63.093 [cal/(mol K)]      263.981 [J/(mol K)]       0.10054522 [mEh/K]
  Correction S              0.000 [cal/(mol K)]        0.000 [J/(mol K)]       0.00000000 [mEh/K]

  Constant volume heat capacity, Cv
    Electronic Cv           0.000 [cal/(mol K)]        0.000 [J/(mol K)]       0.00000000 [mEh/K]
    Translational Cv        2.981 [cal/(mol K)]       12.472 [J/(mol K)]       0.00475022 [mEh/K]
    Rotational Cv           2.981 [cal/(mol K)]       12.472 [J/(mol K)]       0.00475022 [mEh/K]
    Vibrational Cv          2.928 [cal/(mol K)]       12.249 [J/(mol K)]       0.00466555 [mEh/K]
  Total Cv                  8.889 [cal/(mol K)]       37.193 [J/(mol K)]       0.01416599 [mEh/K]
  Correction Cv             0.000 [cal/(mol K)]        0.000 [J/(mol K)]       0.00000000 [mEh/K]

  Constant pressure heat capacity, Cp
    Electronic Cp           0.000 [cal/(mol K)]        0.000 [J/(mol K)]       0.00000000 [mEh/K]
    Translational Cp        4.968 [cal/(mol K)]       20.786 [J/(mol K)]       0.00791703 [mEh/K]
    Rotational Cp           2.981 [cal/(mol K)]       12.472 [J/(mol K)]       0.00475022 [mEh/K]
    Vibrational Cp          2.928 [cal/(mol K)]       12.249 [J/(mol K)]       0.00466555 [mEh/K]
  Total Cp                 10.876 [cal/(mol K)]       45.507 [J/(mol K)]       0.01733280 [mEh/K]
  Correction Cp             0.000 [cal/(mol K)]        0.000 [J/(mol K)]       0.00000000 [mEh/K]

  ==> Thermochemistry Energy Analysis <==

  Raw electronic energy, E0
  Total E0, Electronic energy at well bottom at 0 [K]                 -958.26802306 [Eh]

  Zero-point energy, ZPE_vib = Sum_i nu_i / 2
    Electronic ZPE          0.000 [kcal/mol]        0.000 [kJ/mol]       0.00000000 [Eh]
    Translational ZPE       0.000 [kcal/mol]        0.000 [kJ/mol]       0.00000000 [Eh]
    Rotational ZPE          0.000 [kcal/mol]        0.000 [kJ/mol]       0.00000000 [Eh]
    Vibrational ZPE         2.746 [kcal/mol]       11.491 [kJ/mol]       0.00437656 [Eh]         960.543 [cm^-1]
  Correction ZPE            2.746 [kcal/mol]       11.491 [kJ/mol]       0.00437656 [Eh]         960.543 [cm^-1]
  Total ZPE, Electronic energy at 0 [K]                               -958.26364650 [Eh]

  Thermal Energy, E (includes ZPE)
    Electronic E            0.000 [kcal/mol]        0.000 [kJ/mol]       0.00000000 [Eh]
    Translational E         0.889 [kcal/mol]        3.718 [kJ/mol]       0.00141628 [Eh]
    Rotational E            0.889 [kcal/mol]        3.718 [kJ/mol]       0.00141628 [Eh]
    Vibrational E           3.078 [kcal/mol]       12.880 [kJ/mol]       0.00490559 [Eh]
  Correction E              4.856 [kcal/mol]       20.316 [kJ/mol]       0.00773814 [Eh]
  Total E, Electronic energy at  298.15 [K]                           -958.26028492 [Eh]

  Enthalpy, H_trans = E_trans + k_B * T
    Electronic H            0.000 [kcal/mol]        0.000 [kJ/mol]       0.00000000 [Eh]
    Translational H         1.481 [kcal/mol]        6.197 [kJ/mol]       0.00236046 [Eh]
    Rotational H            0.889 [kcal/mol]        3.718 [kJ/mol]       0.00141628 [Eh]
    Vibrational H           3.078 [kcal/mol]       12.880 [kJ/mol]       0.00490559 [Eh]
  Correction H              5.448 [kcal/mol]       22.795 [kJ/mol]       0.00868233 [Eh]
  Total H, Enthalpy at  298.15 [K]                                    -958.25934073 [Eh]

  Gibbs free energy, G = H - T * S
    Electronic G            0.000 [kcal/mol]        0.000 [kJ/mol]       0.00000000 [Eh]
    Translational G       -10.184 [kcal/mol]      -42.608 [kJ/mol]      -0.01622870 [Eh]
    Rotational G           -5.776 [kcal/mol]      -24.167 [kJ/mol]      -0.00920486 [Eh]
    Vibrational G           2.597 [kcal/mol]       10.865 [kJ/mol]       0.00413833 [Eh]
  Correction G            -13.363 [kcal/mol]      -55.911 [kJ/mol]      -0.02129523 [Eh]
  Total G, Free enthalpy at  298.15 [K]                               -958.28931829 [Eh]

*** Psi4 exiting successfully. Buy a developer a beer!
