                               Psi4 1.3.2 release

  ==> Input File <==

--------------------------------------------------------------------------
memory 144 GB

molecule {
0 1
C 0.0000000000 0.0000000000 0.0000000000
F 0.0000000000 0.0000000000 1.2971000000
F 1.2538059978 0.0000000000 -0.3323235319
}

set dynamic_level 1
set basis aug-cc-pV(D+d)Z

optimize("wB97X-V")
frequencies("wB97X-V")
--------------------------------------------------------------------------

    Molecular point group: c2v
  Charge       = 0
  Multiplicity = 1
  Basis Set: AUG-CC-PV(D+D)Z
    Blend: AUG-CC-PV(D+D)Z
  Basis Set: (AUG-CC-PV(D+D)Z AUX)
    Blend: AUG-CC-PVDZ-JKFIT
  @DF-RKS Final Energy:  -237.65577192675926
    Total Energy =                       -237.6557719267592290
    Molecular point group: c2v
  Basis Set: AUG-CC-PV(D+D)Z
    Blend: AUG-CC-PV(D+D)Z
  Basis Set: (AUG-CC-PV(D+D)Z AUX)
    Blend: AUG-CC-PVDZ-JKFIT
  @DF-RKS Final Energy:  -237.65580521510256
    Total Energy =                       -237.6558052151025606
  Basis Set: AUG-CC-PV(D+D)Z
    Blend: AUG-CC-PV(D+D)Z
  Basis Set: (AUG-CC-PV(D+D)Z AUX)
    Blend: AUG-CC-PVDZ-JKFIT
  @DF-RKS Final Energy:  -237.65573728759728
    Total Energy =                       -237.6557372875972760
  Basis Set: AUG-CC-PV(D+D)Z
    Blend: AUG-CC-PV(D+D)Z
  Basis Set: (AUG-CC-PV(D+D)Z AUX)
    Blend: AUG-CC-PVDZ-JKFIT
  @DF-RKS Final Energy:  -237.65575263570369
    Total Energy =                       -237.6557526357036920
  @DF-RKS Final Energy:  -237.65579059885496
    Total Energy =                       -237.6557905988549635
  @DF-RKS Final Energy:  -237.65624042926572
    Total Energy =                       -237.6562404292657504
  @DF-RKS Final Energy:  -237.65624974669294
    Total Energy =                       -237.6562497466929358
  @DF-RKS Final Energy:  -237.65622982275630
    Total Energy =                       -237.6562298227563019
  @DF-RKS Final Energy:  -237.65623477820819
    Total Energy =                       -237.6562347782081588
  @DF-RKS Final Energy:  -237.65624549998179
    Total Energy =                       -237.6562454999817646
  @DF-RKS Final Energy:  -237.65628538504029
    Total Energy =                       -237.6562853850402917
  @DF-RKS Final Energy:  -237.65628505925372
    Total Energy =                       -237.6562850592537188
  @DF-RKS Final Energy:  -237.65628444310363
    Total Energy =                       -237.6562844431036012
  @DF-RKS Final Energy:  -237.65628460323785
    Total Energy =                       -237.6562846032378786
  @DF-RKS Final Energy:  -237.65628559534846
    Total Energy =                       -237.6562855953484643
  **** Optimization is complete! (in 3 steps) ****
    Final optimized geometry and variables:
  @DF-RKS Final Energy:  -237.65628538504021
    Total Energy =                       -237.6562853850402064
  @DF-RKS Final Energy:  -237.65628505964008
    Total Energy =                       -237.6562850596400835
  @DF-RKS Final Energy:  -237.65628444297545
    Total Energy =                       -237.6562844429754762
  @DF-RKS Final Energy:  -237.65628460323794
    Total Energy =                       -237.6562846032379355
  @DF-RKS Final Energy:  -237.65628559534855
    Total Energy =                       -237.6562855953485496
  @DF-RKS Final Energy:  -237.65628538504038
    Total Energy =                       -237.6562853850404053
  @DF-RKS Final Energy:  -237.65628505964040
    Total Energy =                       -237.6562850596403962
  @DF-RKS Final Energy:  -237.65628444297570
    Total Energy =                       -237.6562844429757035
  @DF-RKS Final Energy:  -237.65628460323805
    Total Energy =                       -237.6562846032380776
  Basis Set: AUG-CC-PV(D+D)Z
    Blend: AUG-CC-PV(D+D)Z
  Basis Set: (AUG-CC-PV(D+D)Z AUX)
    Blend: AUG-CC-PVDZ-JKFIT
  @DF-RKS Final Energy:  -237.65628559534869
    Total Energy =                       -237.6562855953486917
  Basis Set: AUG-CC-PV(D+D)Z
    Blend: AUG-CC-PV(D+D)Z
  Basis Set: (AUG-CC-PV(D+D)Z AUX)
    Blend: AUG-CC-PVDZ-JKFIT
  @DF-RKS Final Energy:  -237.65628501770894
    Total Energy =                       -237.6562850177089672
  Multiplicity = 1
  Basis Set: AUG-CC-PV(D+D)Z
    Blend: AUG-CC-PV(D+D)Z
  Basis Set: (AUG-CC-PV(D+D)Z AUX)
    Blend: AUG-CC-PVDZ-JKFIT
  @DF-RKS Final Energy:  -237.65628463981221
    Total Energy =                       -237.6562846398122133
    Molecular point group: cs

    Geometry (in Angstrom), charge = 0, multiplicity = 1:

       Center              X                  Y                   Z               Mass
    ------------   -----------------  -----------------  -----------------  -----------------
         C            0.000000000000    -0.000621880127    -0.614748698218    12.000000000000
         F            0.000000000000     1.035762508699     0.194300895550    18.998403162730
         F            0.000000000000    -1.035369709291     0.193994074055    18.998403162730

  Charge       = 0
  Multiplicity = 1
  Basis Set: AUG-CC-PV(D+D)Z
    Blend: AUG-CC-PV(D+D)Z
  Basis Set: (AUG-CC-PV(D+D)Z AUX)
    Blend: AUG-CC-PVDZ-JKFIT

    Orbital Energies [Eh]
    ---------------------

    Doubly Occupied:

       1Ap   -24.869111     2Ap   -24.868491     3Ap   -10.501416
       4Ap    -1.477019     5Ap    -1.400583     6Ap    -0.839625
       7Ap    -0.723161     1App   -0.677853     8Ap    -0.673213
       2App   -0.597099     9Ap    -0.571010    10Ap    -0.426088

  @DF-RKS Final Energy:  -237.65628480105184

   => Energetics <=

    Nuclear Repulsion Energy =             64.1882052335313205
    One-Electron Energy =                -455.7655913628258304
    Two-Electron Energy =                 172.6253816894423210
    DFT Exchange-Correlation Energy =     -18.8049118442343257
    Empirical Dispersion Energy =           0.0000000000000000
    VV10 Nonlocal Energy =                  0.1006314830346735
    Total Energy =                       -237.6562848010518394

  Dipole Moment: [D]
     X:     0.0000      Y:    -0.0080      Z:     0.5300     Total:     0.5301

  Vibration                       7                   8                   9
  Freq [cm^-1]                 663.4859           1111.0956           1226.1880
  Irrep                           A1                  B2                  A1
  Reduced mass [u]             17.7838             13.7014             13.8178
  Force const [mDyne/A]         4.6125              9.9659             12.2406

  ==> Thermochemistry Components <==

  Entropy, S
    Electronic S            0.000 [cal/(mol K)]        0.000 [J/(mol K)]       0.00000000 [mEh/K] (multiplicity = 1)
    Translational S        37.652 [cal/(mol K)]      157.535 [J/(mol K)]       0.06000175 [mEh/K] (mol. weight = 49.9968 [u], P = 101325.00 [Pa])
    Rotational S           19.498 [cal/(mol K)]       81.578 [J/(mol K)]       0.03107144 [mEh/K] (symmetry no. = 2)
    Vibrational S           0.449 [cal/(mol K)]        1.879 [J/(mol K)]       0.00071571 [mEh/K]
  Total S                  57.598 [cal/(mol K)]      240.992 [J/(mol K)]       0.09178889 [mEh/K]
  Correction S              0.000 [cal/(mol K)]        0.000 [J/(mol K)]       0.00000000 [mEh/K]

  Constant volume heat capacity, Cv
    Electronic Cv           0.000 [cal/(mol K)]        0.000 [J/(mol K)]       0.00000000 [mEh/K]
    Translational Cv        2.981 [cal/(mol K)]       12.472 [J/(mol K)]       0.00475022 [mEh/K]
    Rotational Cv           2.981 [cal/(mol K)]       12.472 [J/(mol K)]       0.00475022 [mEh/K]
    Vibrational Cv          1.360 [cal/(mol K)]        5.689 [J/(mol K)]       0.00216684 [mEh/K]
  Total Cv                  7.321 [cal/(mol K)]       30.632 [J/(mol K)]       0.01166727 [mEh/K]
  Correction Cv             0.000 [cal/(mol K)]        0.000 [J/(mol K)]       0.00000000 [mEh/K]

  Constant pressure heat capacity, Cp
    Electronic Cp           0.000 [cal/(mol K)]        0.000 [J/(mol K)]       0.00000000 [mEh/K]
    Translational Cp        4.968 [cal/(mol K)]       20.786 [J/(mol K)]       0.00791703 [mEh/K]
    Rotational Cp           2.981 [cal/(mol K)]       12.472 [J/(mol K)]       0.00475022 [mEh/K]
    Vibrational Cp          1.360 [cal/(mol K)]        5.689 [J/(mol K)]       0.00216684 [mEh/K]
  Total Cp                  9.309 [cal/(mol K)]       38.947 [J/(mol K)]       0.01483408 [mEh/K]
  Correction Cp             0.000 [cal/(mol K)]        0.000 [J/(mol K)]       0.00000000 [mEh/K]

  ==> Thermochemistry Energy Analysis <==

  Raw electronic energy, E0
  Total E0, Electronic energy at well bottom at 0 [K]                 -237.65628539 [Eh]

  Zero-point energy, ZPE_vib = Sum_i nu_i / 2
    Electronic ZPE          0.000 [kcal/mol]        0.000 [kJ/mol]       0.00000000 [Eh]
    Translational ZPE       0.000 [kcal/mol]        0.000 [kJ/mol]       0.00000000 [Eh]
    Rotational ZPE          0.000 [kcal/mol]        0.000 [kJ/mol]       0.00000000 [Eh]
    Vibrational ZPE         4.290 [kcal/mol]       17.949 [kJ/mol]       0.00683626 [Eh]        1500.385 [cm^-1]
  Correction ZPE            4.290 [kcal/mol]       17.949 [kJ/mol]       0.00683626 [Eh]        1500.385 [cm^-1]
  Total ZPE, Electronic energy at 0 [K]                               -237.64944913 [Eh]

  Thermal Energy, E (includes ZPE)
    Electronic E            0.000 [kcal/mol]        0.000 [kJ/mol]       0.00000000 [Eh]
    Translational E         0.889 [kcal/mol]        3.718 [kJ/mol]       0.00141628 [Eh]
    Rotational E            0.889 [kcal/mol]        3.718 [kJ/mol]       0.00141628 [Eh]
    Vibrational E           4.395 [kcal/mol]       18.388 [kJ/mol]       0.00700343 [Eh]
  Correction E              6.172 [kcal/mol]       25.824 [kJ/mol]       0.00983599 [Eh]
  Total E, Electronic energy at  298.15 [K]                           -237.64644940 [Eh]

  Enthalpy, H_trans = E_trans + k_B * T
    Electronic H            0.000 [kcal/mol]        0.000 [kJ/mol]       0.00000000 [Eh]
    Translational H         1.481 [kcal/mol]        6.197 [kJ/mol]       0.00236046 [Eh]
    Rotational H            0.889 [kcal/mol]        3.718 [kJ/mol]       0.00141628 [Eh]
    Vibrational H           4.395 [kcal/mol]       18.388 [kJ/mol]       0.00700343 [Eh]
  Correction H              6.765 [kcal/mol]       28.303 [kJ/mol]       0.01078017 [Eh]
  Total H, Enthalpy at  298.15 [K]                                    -237.64550521 [Eh]

  Gibbs free energy, G = H - T * S
    Electronic G            0.000 [kcal/mol]        0.000 [kJ/mol]       0.00000000 [Eh]
    Translational G        -9.745 [kcal/mol]      -40.772 [kJ/mol]      -0.01552906 [Eh]
    Rotational G           -4.924 [kcal/mol]      -20.604 [kJ/mol]      -0.00784767 [Eh]
    Vibrational G           4.261 [kcal/mol]       17.827 [kJ/mol]       0.00679005 [Eh]
  Correction G            -10.408 [kcal/mol]      -43.548 [kJ/mol]      -0.01658669 [Eh]
  Total G, Free enthalpy at  298.15 [K]                               -237.67287207 [Eh]

*** Psi4 exiting successfully. Buy a developer a beer!
