                               Psi4 1.3.2 release

  ==> Input File <==

--------------------------------------------------------------------------
memory 144 GB

molecule {
0 1
Cl 0.0000000000 0.0000000000 0.0000000000
Cl 0.0000000000 0.0000000000 1.9965761200
}

set dynamic_level 1
set basis aug-cc-pV(D+d)Z

optimize("wB97X-V")
frequencies("wB97X-V")
--------------------------------------------------------------------------

    Molecular point group: d2h
  Charge       = 0
  Multiplicity = 1
  Basis Set: AUG-CC-PV(D+D)Z
    Blend: AUG-CC-PV(D+D)Z
  Basis Set: (AUG-CC-PV(D+D)Z AUX)
    Blend: AUG-CC-PVDZ-JKFIT
  @DF-RKS Final Energy:  -920.23693525652163
    Total Energy =                       -920.2369352565215195
    Molecular point group: d2h
  Basis Set: AUG-CC-PV(D+D)Z
    Blend: AUG-CC-PV(D+D)Z
  Basis Set: (AUG-CC-PV(D+D)Z AUX)
    Blend: AUG-CC-PVDZ-JKFIT
  @DF-RKS Final Energy:  -920.23693278367364
    Total Energy =                       -920.2369327836736375
  Basis Set: AUG-CC-PV(D+D)Z
    Blend: AUG-CC-PV(D+D)Z
  Basis Set: (AUG-CC-PV(D+D)Z AUX)
    Blend: AUG-CC-PVDZ-JKFIT
  @DF-RKS Final Energy:  -920.23693741642865
    Total Energy =                       -920.2369374164286455
  Basis Set: AUG-CC-PV(D+D)Z
    Blend: AUG-CC-PV(D+D)Z
  Basis Set: (AUG-CC-PV(D+D)Z AUX)
    Blend: AUG-CC-PVDZ-JKFIT
  @DF-RKS Final Energy:  -920.23694260687307
    Total Energy =                       -920.2369426068730718
  @DF-RKS Final Energy:  -920.23694159324282
    Total Energy =                       -920.2369415932427046
  @DF-RKS Final Energy:  -920.23694330308513
    Total Energy =                       -920.2369433030852406
  @DF-RKS Final Energy:  -920.23694375397656
    Total Energy =                       -920.2369437539764476
  @DF-RKS Final Energy:  -920.23694360305808
    Total Energy =                       -920.2369436030580800
  @DF-RKS Final Energy:  -920.23694358449416
    Total Energy =                       -920.2369435844941563
  **** Optimization is complete! (in 3 steps) ****
    Final optimized geometry and variables:
  @DF-RKS Final Energy:  -920.23694375372975
    Total Energy =                       -920.2369437537296335
  @DF-RKS Final Energy:  -920.23694360313004
    Total Energy =                       -920.2369436031300438
  Basis Set: AUG-CC-PV(D+D)Z
    Blend: AUG-CC-PV(D+D)Z
  Basis Set: (AUG-CC-PV(D+D)Z AUX)
    Blend: AUG-CC-PVDZ-JKFIT
  @DF-RKS Final Energy:  -920.23694358438388
    Total Energy =                       -920.2369435843838801
  Basis Set: AUG-CC-PV(D+D)Z
    Blend: AUG-CC-PV(D+D)Z
  Basis Set: (AUG-CC-PV(D+D)Z AUX)
    Blend: AUG-CC-PVDZ-JKFIT
  @DF-RKS Final Energy:  -920.23694375372975
    Total Energy =                       -920.2369437537297472
  Multiplicity = 1
  Basis Set: AUG-CC-PV(D+D)Z
    Blend: AUG-CC-PV(D+D)Z
  Basis Set: (AUG-CC-PV(D+D)Z AUX)
    Blend: AUG-CC-PVDZ-JKFIT
  @DF-RKS Final Energy:  -920.23694360313073
    Total Energy =                       -920.2369436031307259
    Molecular point group: d2h

    Geometry (in Angstrom), charge = 0, multiplicity = 1:

       Center              X                  Y                   Z               Mass
    ------------   -----------------  -----------------  -----------------  -----------------
         CL           0.000000000000     0.000000000000    -0.995649713876    34.968852682000
         CL           0.000000000000     0.000000000000     0.995649713876    34.968852682000

  Charge       = 0
  Multiplicity = 1
  Basis Set: AUG-CC-PV(D+D)Z
    Blend: AUG-CC-PV(D+D)Z
  Basis Set: (AUG-CC-PV(D+D)Z AUX)
    Blend: AUG-CC-PVDZ-JKFIT

    Orbital Energies [Eh]
    ---------------------

    Doubly Occupied:

       1B1u -101.591101     1Ag  -101.591100     2B1u   -9.617318
       2Ag    -9.617243     3Ag    -7.376723     3B1u   -7.376577
       1B3g   -7.360759     1B2g   -7.360759     1B2u   -7.360758
       1B3u   -7.360758     4Ag    -1.074927     4B1u   -0.897059
       5Ag    -0.577732     2B2u   -0.524475     2B3u   -0.524475
       2B3g   -0.411831     2B2g   -0.411831

  @DF-RKS Final Energy:  -920.23694358438411

   => Energetics <=

    Nuclear Repulsion Energy =             76.8002098289811386
    One-Electron Energy =               -1422.8719793599309469
    Two-Electron Energy =                 468.4129882652526362
    DFT Exchange-Correlation Energy =     -42.7205110416864926
    Empirical Dispersion Energy =           0.0000000000000000
    VV10 Nonlocal Energy =                  0.1423487229994572
    Total Energy =                       -920.2369435843841075

  Dipole Moment: [D]
     X:     0.0000      Y:     0.0000      Z:     0.0000     Total:     0.0000

  Vibration                       6
  Freq [cm^-1]                 581.5295
  Irrep                           Ag
  Reduced mass [u]             34.9689
  Force const [mDyne/A]         6.9675

  ==> Thermochemistry Components <==

  Entropy, S
    Electronic S            0.000 [cal/(mol K)]        0.000 [J/(mol K)]       0.00000000 [mEh/K] (multiplicity = 1)
    Translational S        38.652 [cal/(mol K)]      161.721 [J/(mol K)]       0.06159614 [mEh/K] (mol. weight = 69.9377 [u], P = 101325.00 [Pa])
    Rotational S           14.020 [cal/(mol K)]       58.662 [J/(mol K)]       0.02234303 [mEh/K] (symmetry no. = 2)
    Vibrational S           0.483 [cal/(mol K)]        2.019 [J/(mol K)]       0.00076897 [mEh/K]
  Total S                  53.155 [cal/(mol K)]      222.401 [J/(mol K)]       0.08470814 [mEh/K]
  Correction S              0.000 [cal/(mol K)]        0.000 [J/(mol K)]       0.00000000 [mEh/K]

  Constant volume heat capacity, Cv
    Electronic Cv           0.000 [cal/(mol K)]        0.000 [J/(mol K)]       0.00000000 [mEh/K]
    Translational Cv        2.981 [cal/(mol K)]       12.472 [J/(mol K)]       0.00475022 [mEh/K]
    Rotational Cv           1.987 [cal/(mol K)]        8.314 [J/(mol K)]       0.00316681 [mEh/K]
    Vibrational Cv          1.071 [cal/(mol K)]        4.482 [J/(mol K)]       0.00170716 [mEh/K]
  Total Cv                  6.039 [cal/(mol K)]       25.268 [J/(mol K)]       0.00962418 [mEh/K]
  Correction Cv             0.000 [cal/(mol K)]        0.000 [J/(mol K)]       0.00000000 [mEh/K]

  Constant pressure heat capacity, Cp
    Electronic Cp           0.000 [cal/(mol K)]        0.000 [J/(mol K)]       0.00000000 [mEh/K]
    Translational Cp        4.968 [cal/(mol K)]       20.786 [J/(mol K)]       0.00791703 [mEh/K]
    Rotational Cp           1.987 [cal/(mol K)]        8.314 [J/(mol K)]       0.00316681 [mEh/K]
    Vibrational Cp          1.071 [cal/(mol K)]        4.482 [J/(mol K)]       0.00170716 [mEh/K]
  Total Cp                  8.026 [cal/(mol K)]       33.583 [J/(mol K)]       0.01279100 [mEh/K]
  Correction Cp             0.000 [cal/(mol K)]        0.000 [J/(mol K)]       0.00000000 [mEh/K]

  ==> Thermochemistry Energy Analysis <==

  Raw electronic energy, E0
  Total E0, Electronic energy at well bottom at 0 [K]                 -920.23694375 [Eh]

  Zero-point energy, ZPE_vib = Sum_i nu_i / 2
    Electronic ZPE          0.000 [kcal/mol]        0.000 [kJ/mol]       0.00000000 [Eh]
    Translational ZPE       0.000 [kcal/mol]        0.000 [kJ/mol]       0.00000000 [Eh]
    Rotational ZPE          0.000 [kcal/mol]        0.000 [kJ/mol]       0.00000000 [Eh]
    Vibrational ZPE         0.831 [kcal/mol]        3.478 [kJ/mol]       0.00132482 [Eh]         290.765 [cm^-1]
  Correction ZPE            0.831 [kcal/mol]        3.478 [kJ/mol]       0.00132482 [Eh]         290.765 [cm^-1]
  Total ZPE, Electronic energy at 0 [K]                               -920.23561893 [Eh]

  Thermal Energy, E (includes ZPE)
    Electronic E            0.000 [kcal/mol]        0.000 [kJ/mol]       0.00000000 [Eh]
    Translational E         0.889 [kcal/mol]        3.718 [kJ/mol]       0.00141628 [Eh]
    Rotational E            0.592 [kcal/mol]        2.479 [kJ/mol]       0.00094418 [Eh]
    Vibrational E           0.938 [kcal/mol]        3.926 [kJ/mol]       0.00149524 [Eh]
  Correction E              2.419 [kcal/mol]       10.123 [kJ/mol]       0.00385570 [Eh]
  Total E, Electronic energy at  298.15 [K]                           -920.23308806 [Eh]

  Enthalpy, H_trans = E_trans + k_B * T
    Electronic H            0.000 [kcal/mol]        0.000 [kJ/mol]       0.00000000 [Eh]
    Translational H         1.481 [kcal/mol]        6.197 [kJ/mol]       0.00236046 [Eh]
    Rotational H            0.592 [kcal/mol]        2.479 [kJ/mol]       0.00094418 [Eh]
    Vibrational H           0.938 [kcal/mol]        3.926 [kJ/mol]       0.00149524 [Eh]
  Correction H              3.012 [kcal/mol]       12.602 [kJ/mol]       0.00479988 [Eh]
  Total H, Enthalpy at  298.15 [K]                                    -920.23214387 [Eh]

  Gibbs free energy, G = H - T * S
    Electronic G            0.000 [kcal/mol]        0.000 [kJ/mol]       0.00000000 [Eh]
    Translational G       -10.043 [kcal/mol]      -42.020 [kJ/mol]      -0.01600443 [Eh]
    Rotational G           -3.588 [kcal/mol]      -15.011 [kJ/mol]      -0.00571739 [Eh]
    Vibrational G           0.794 [kcal/mol]        3.324 [kJ/mol]       0.00126597 [Eh]
  Correction G            -12.836 [kcal/mol]      -53.707 [kJ/mol]      -0.02045585 [Eh]
  Total G, Free enthalpy at  298.15 [K]                               -920.25739960 [Eh]

*** Psi4 exiting successfully. Buy a developer a beer!
