                               Psi4 1.3.2 release

  ==> Input File <==

--------------------------------------------------------------------------
memory 144 GB

molecule {
0 1
Cl 0.0000000000 0.0000000000 0.0000000000
C 0.0000000000 0.0000000000 1.6357056100
N 0.0000000000 0.0000000000 2.7976884200
}

set dynamic_level 1
set basis aug-cc-pV(D+d)Z

optimize("wB97X-V")
frequencies("wB97X-V")
--------------------------------------------------------------------------

    Molecular point group: c2v
  Charge       = 0
  Multiplicity = 1
  Basis Set: AUG-CC-PV(D+D)Z
    Blend: AUG-CC-PV(D+D)Z
  Basis Set: (AUG-CC-PV(D+D)Z AUX)
    Blend: AUG-CC-PVDZ-JKFIT
  @DF-RKS Final Energy:  -552.93666367894321
    Total Energy =                       -552.9366636789433187
    Molecular point group: c2v
  Basis Set: AUG-CC-PV(D+D)Z
    Blend: AUG-CC-PV(D+D)Z
  Basis Set: (AUG-CC-PV(D+D)Z AUX)
    Blend: AUG-CC-PVDZ-JKFIT
  @DF-RKS Final Energy:  -552.93666421282717
    Total Energy =                       -552.9366642128271678
  Basis Set: AUG-CC-PV(D+D)Z
    Blend: AUG-CC-PV(D+D)Z
  Basis Set: (AUG-CC-PV(D+D)Z AUX)
    Blend: AUG-CC-PVDZ-JKFIT
  @DF-RKS Final Energy:  -552.93666253371589
    Total Energy =                       -552.9366625337158894
  Basis Set: AUG-CC-PV(D+D)Z
    Blend: AUG-CC-PV(D+D)Z
  Basis Set: (AUG-CC-PV(D+D)Z AUX)
    Blend: AUG-CC-PVDZ-JKFIT
  @DF-RKS Final Energy:  -552.93665230604768
    Total Energy =                       -552.9366523060477903
  @DF-RKS Final Energy:  -552.93666984303832
    Total Energy =                       -552.9366698430383167
  @DF-RKS Final Energy:  -552.93667100976768
    Total Energy =                       -552.9366710097676787
  @DF-RKS Final Energy:  -552.93667092444923
    Total Energy =                       -552.9366709244492313
  @DF-RKS Final Energy:  -552.93667048302314
    Total Energy =                       -552.9366704830232493
  @DF-RKS Final Energy:  -552.93666814235667
    Total Energy =                       -552.9366681423566661
  @DF-RKS Final Energy:  -552.93666861524116
    Total Energy =                       -552.9366686152411603
  **** Optimization is complete! (in 2 steps) ****
    Final optimized geometry and variables:
  @DF-RKS Final Energy:  -552.93667100976734
    Total Energy =                       -552.9366710097674513
  @DF-RKS Final Energy:  -552.93667092705562
    Total Energy =                       -552.9366709270557294
  @DF-RKS Final Energy:  -552.93667048302336
    Total Energy =                       -552.9366704830233630
  @DF-RKS Final Energy:  -552.93666814082042
    Total Energy =                       -552.9366681408203021
  @DF-RKS Final Energy:  -552.93666861524059
    Total Energy =                       -552.9366686152407055
  @DF-RKS Final Energy:  -552.93667100976757
    Total Energy =                       -552.9366710097675650
  @DF-RKS Final Energy:  -552.93667092705584
    Total Energy =                       -552.9366709270558431
  @DF-RKS Final Energy:  -552.93667048302348
    Total Energy =                       -552.9366704830235904
  @DF-RKS Final Energy:  -552.93666814082042
    Total Energy =                       -552.9366681408204158
  @DF-RKS Final Energy:  -552.93666861524150
    Total Energy =                       -552.9366686152415014
  Basis Set: AUG-CC-PV(D+D)Z
    Blend: AUG-CC-PV(D+D)Z
  Basis Set: (AUG-CC-PV(D+D)Z AUX)
    Blend: AUG-CC-PVDZ-JKFIT
  @DF-RKS Final Energy:  -552.93666855327683
    Total Energy =                       -552.9366685532767178
  Basis Set: AUG-CC-PV(D+D)Z
    Blend: AUG-CC-PV(D+D)Z
  Basis Set: (AUG-CC-PV(D+D)Z AUX)
    Blend: AUG-CC-PVDZ-JKFIT
  @DF-RKS Final Energy:  -552.93666852068941
    Total Energy =                       -552.9366685206894090
  Multiplicity = 1
  Basis Set: AUG-CC-PV(D+D)Z
    Blend: AUG-CC-PV(D+D)Z
  Basis Set: (AUG-CC-PV(D+D)Z AUX)
    Blend: AUG-CC-PVDZ-JKFIT
  @DF-RKS Final Energy:  -552.93667093324120
    Total Energy =                       -552.9366709332410892
    Molecular point group: cs

    Geometry (in Angstrom), charge = 0, multiplicity = 1:

       Center              X                  Y                   Z               Mass
    ------------   -----------------  -----------------  -----------------  -----------------
         CL           0.000000000000    -0.000093502280    -0.964386675232    34.968852682000
         C            0.000000000000     0.000656775077     0.672083305752    12.000000000000
         N            0.000000000000    -0.000329330080     1.832347375835    14.003074004430

  Charge       = 0
  Multiplicity = 1
  Basis Set: AUG-CC-PV(D+D)Z
    Blend: AUG-CC-PV(D+D)Z
  Basis Set: (AUG-CC-PV(D+D)Z AUX)
    Blend: AUG-CC-PVDZ-JKFIT

    Orbital Energies [Eh]
    ---------------------

    Doubly Occupied:

       1Ap  -101.625850     2Ap   -14.462513     3Ap   -10.393267
       4Ap    -9.652319     5Ap    -7.409194     1App   -7.396999
       6Ap    -7.396999     7Ap    -1.103464     8Ap    -1.040455
       9Ap    -0.695876     2App   -0.558158    10Ap    -0.558158
      11Ap    -0.508098     3App   -0.441355    12Ap    -0.441354

  @DF-RKS Final Energy:  -552.93667093320471

   => Energetics <=

    Nuclear Repulsion Energy =             74.6550240040341748
    One-Electron Energy =                -907.4695025530667181
    Two-Electron Energy =                 309.7260519951339575
    DFT Exchange-Correlation Energy =     -29.9726867754705069
    Empirical Dispersion Energy =           0.0000000000000000
    VV10 Nonlocal Energy =                  0.1244423961643014
    Total Energy =                       -552.9366709332047094

  Dipole Moment: [D]
     X:     0.0000      Y:     0.0007      Z:    -2.9472     Total:     2.9472

  Vibration                       6                   7                   8
  Freq [cm^-1]                 402.2118            402.3077            771.9013
  Irrep                           B1                  B2                  A1
  Reduced mass [u]             12.7621             12.7621             17.9740
  Force const [mDyne/A]         1.2164              1.2170              6.3098

  Vibration                       9
  Freq [cm^-1]                2368.9159
  Irrep                           A1
  Reduced mass [u]             12.7382
  Force const [mDyne/A]        42.1169

  ==> Thermochemistry Components <==

  Entropy, S
    Electronic S            0.000 [cal/(mol K)]        0.000 [J/(mol K)]       0.00000000 [mEh/K] (multiplicity = 1)
    Translational S        38.243 [cal/(mol K)]      160.010 [J/(mol K)]       0.06094445 [mEh/K] (mol. weight = 60.9719 [u], P = 101325.00 [Pa])
    Rotational S           15.801 [cal/(mol K)]       66.110 [J/(mol K)]       0.02517981 [mEh/K] (symmetry no. = 1)
    Vibrational S           2.140 [cal/(mol K)]        8.956 [J/(mol K)]       0.00341102 [mEh/K]
  Total S                  56.184 [cal/(mol K)]      235.075 [J/(mol K)]       0.08953528 [mEh/K]
  Correction S              0.000 [cal/(mol K)]        0.000 [J/(mol K)]       0.00000000 [mEh/K]

  Constant volume heat capacity, Cv
    Electronic Cv           0.000 [cal/(mol K)]        0.000 [J/(mol K)]       0.00000000 [mEh/K]
    Translational Cv        2.981 [cal/(mol K)]       12.472 [J/(mol K)]       0.00475022 [mEh/K]
    Rotational Cv           1.987 [cal/(mol K)]        8.314 [J/(mol K)]       0.00316681 [mEh/K]
    Vibrational Cv          3.631 [cal/(mol K)]       15.194 [J/(mol K)]       0.00578713 [mEh/K]
  Total Cv                  8.599 [cal/(mol K)]       35.980 [J/(mol K)]       0.01370415 [mEh/K]
  Correction Cv             0.000 [cal/(mol K)]        0.000 [J/(mol K)]       0.00000000 [mEh/K]

  Constant pressure heat capacity, Cp
    Electronic Cp           0.000 [cal/(mol K)]        0.000 [J/(mol K)]       0.00000000 [mEh/K]
    Translational Cp        4.968 [cal/(mol K)]       20.786 [J/(mol K)]       0.00791703 [mEh/K]
    Rotational Cp           1.987 [cal/(mol K)]        8.314 [J/(mol K)]       0.00316681 [mEh/K]
    Vibrational Cp          3.631 [cal/(mol K)]       15.194 [J/(mol K)]       0.00578713 [mEh/K]
  Total Cp                 10.587 [cal/(mol K)]       44.295 [J/(mol K)]       0.01687097 [mEh/K]
  Correction Cp             0.000 [cal/(mol K)]        0.000 [J/(mol K)]       0.00000000 [mEh/K]

  ==> Thermochemistry Energy Analysis <==

  Raw electronic energy, E0
  Total E0, Electronic energy at well bottom at 0 [K]                 -552.93667101 [Eh]

  Zero-point energy, ZPE_vib = Sum_i nu_i / 2
    Electronic ZPE          0.000 [kcal/mol]        0.000 [kJ/mol]       0.00000000 [Eh]
    Translational ZPE       0.000 [kcal/mol]        0.000 [kJ/mol]       0.00000000 [Eh]
    Rotational ZPE          0.000 [kcal/mol]        0.000 [kJ/mol]       0.00000000 [Eh]
    Vibrational ZPE         5.640 [kcal/mol]       23.598 [kJ/mol]       0.00898814 [Eh]        1972.668 [cm^-1]
  Correction ZPE            5.640 [kcal/mol]       23.598 [kJ/mol]       0.00898814 [Eh]        1972.668 [cm^-1]
  Total ZPE, Electronic energy at 0 [K]                               -552.92768287 [Eh]

  Thermal Energy, E (includes ZPE)
    Electronic E            0.000 [kcal/mol]        0.000 [kJ/mol]       0.00000000 [Eh]
    Translational E         0.889 [kcal/mol]        3.718 [kJ/mol]       0.00141628 [Eh]
    Rotational E            0.592 [kcal/mol]        2.479 [kJ/mol]       0.00094418 [Eh]
    Vibrational E           6.080 [kcal/mol]       25.440 [kJ/mol]       0.00968949 [Eh]
  Correction E              7.561 [kcal/mol]       31.637 [kJ/mol]       0.01204995 [Eh]
  Total E, Electronic energy at  298.15 [K]                           -552.92462106 [Eh]

  Enthalpy, H_trans = E_trans + k_B * T
    Electronic H            0.000 [kcal/mol]        0.000 [kJ/mol]       0.00000000 [Eh]
    Translational H         1.481 [kcal/mol]        6.197 [kJ/mol]       0.00236046 [Eh]
    Rotational H            0.592 [kcal/mol]        2.479 [kJ/mol]       0.00094418 [Eh]
    Vibrational H           6.080 [kcal/mol]       25.440 [kJ/mol]       0.00968949 [Eh]
  Correction H              8.154 [kcal/mol]       34.116 [kJ/mol]       0.01299413 [Eh]
  Total H, Enthalpy at  298.15 [K]                                    -552.92367688 [Eh]

  Gibbs free energy, G = H - T * S
    Electronic G            0.000 [kcal/mol]        0.000 [kJ/mol]       0.00000000 [Eh]
    Translational G        -9.921 [kcal/mol]      -41.509 [kJ/mol]      -0.01581013 [Eh]
    Rotational G           -4.118 [kcal/mol]      -17.232 [kJ/mol]      -0.00656318 [Eh]
    Vibrational G           5.442 [kcal/mol]       22.770 [kJ/mol]       0.00867249 [Eh]
  Correction G             -8.597 [kcal/mol]      -35.971 [kJ/mol]      -0.01370081 [Eh]
  Total G, Free enthalpy at  298.15 [K]                               -552.95037182 [Eh]

*** Psi4 exiting successfully. Buy a developer a beer!
