                               Psi4 1.3.2 release

  ==> Input File <==

--------------------------------------------------------------------------
memory 144 GB

molecule {
0 1
Cl 0.0000000000 0.0000000000 0.0000000000
F 0.0000000000 0.0000000000 1.6318233300
}

set dynamic_level 1
set basis aug-cc-pV(D+d)Z

optimize("wB97X-V")
frequencies("wB97X-V")
--------------------------------------------------------------------------

    Molecular point group: c2v
  Charge       = 0
  Multiplicity = 1
  Basis Set: AUG-CC-PV(D+D)Z
    Blend: AUG-CC-PV(D+D)Z
  Basis Set: (AUG-CC-PV(D+D)Z AUX)
    Blend: AUG-CC-PVDZ-JKFIT
  @DF-RKS Final Energy:  -559.87526270260048
    Total Energy =                       -559.8752627026004802
    Molecular point group: c2v
  Basis Set: AUG-CC-PV(D+D)Z
    Blend: AUG-CC-PV(D+D)Z
  Basis Set: (AUG-CC-PV(D+D)Z AUX)
    Blend: AUG-CC-PVDZ-JKFIT
  @DF-RKS Final Energy:  -559.87527183026862
    Total Energy =                       -559.8752718302687299
  Basis Set: AUG-CC-PV(D+D)Z
    Blend: AUG-CC-PV(D+D)Z
  Basis Set: (AUG-CC-PV(D+D)Z AUX)
    Blend: AUG-CC-PVDZ-JKFIT
  @DF-RKS Final Energy:  -559.87525288099448
    Total Energy =                       -559.8752528809945943
  Basis Set: AUG-CC-PV(D+D)Z
    Blend: AUG-CC-PV(D+D)Z
  Basis Set: (AUG-CC-PV(D+D)Z AUX)
    Blend: AUG-CC-PVDZ-JKFIT
  @DF-RKS Final Energy:  -559.87532382803829
    Total Energy =                       -559.8753238280382902
  @DF-RKS Final Energy:  -559.87532599830092
    Total Energy =                       -559.8753259983009229
  @DF-RKS Final Energy:  -559.87532099065288
    Total Energy =                       -559.8753209906527673
  @DF-RKS Final Energy:  -559.87532854468645
    Total Energy =                       -559.8753285446864538
  @DF-RKS Final Energy:  -559.87532828195219
    Total Energy =                       -559.8753282819521928
  @DF-RKS Final Energy:  -559.87532814961696
    Total Energy =                       -559.8753281496169620
  **** Optimization is complete! (in 3 steps) ****
    Final optimized geometry and variables:
  @DF-RKS Final Energy:  -559.87532854468611
    Total Energy =                       -559.8753285446861128
  @DF-RKS Final Energy:  -559.87532828189217
    Total Energy =                       -559.8753282818920525
  Basis Set: AUG-CC-PV(D+D)Z
    Blend: AUG-CC-PV(D+D)Z
  Basis Set: (AUG-CC-PV(D+D)Z AUX)
    Blend: AUG-CC-PVDZ-JKFIT
  @DF-RKS Final Energy:  -559.87532814962231
    Total Energy =                       -559.8753281496221916
  Basis Set: AUG-CC-PV(D+D)Z
    Blend: AUG-CC-PV(D+D)Z
  Basis Set: (AUG-CC-PV(D+D)Z AUX)
    Blend: AUG-CC-PVDZ-JKFIT
  @DF-RKS Final Energy:  -559.87532854468611
    Total Energy =                       -559.8753285446861128
  Multiplicity = 1
  Basis Set: AUG-CC-PV(D+D)Z
    Blend: AUG-CC-PV(D+D)Z
  Basis Set: (AUG-CC-PV(D+D)Z AUX)
    Blend: AUG-CC-PVDZ-JKFIT
  @DF-RKS Final Energy:  -559.87532828189217
    Total Energy =                       -559.8753282818920525
    Molecular point group: c2v

    Geometry (in Angstrom), charge = 0, multiplicity = 1:

       Center              X                  Y                   Z               Mass
    ------------   -----------------  -----------------  -----------------  -----------------
         CL           0.000000000000     0.000000000000    -0.577891596004    34.968852682000
         F            0.000000000000     0.000000000000     1.063679189968    18.998403162730

  Charge       = 0
  Multiplicity = 1
  Basis Set: AUG-CC-PV(D+D)Z
    Blend: AUG-CC-PV(D+D)Z
  Basis Set: (AUG-CC-PV(D+D)Z AUX)
    Blend: AUG-CC-PVDZ-JKFIT

    Orbital Energies [Eh]
    ---------------------

    Doubly Occupied:

       1A1  -101.626560     2A1   -24.846917     3A1    -9.647794
       4A1    -7.410372     1B2    -7.390172     1B1    -7.390172
       5A1    -1.379452     6A1    -0.969429     7A1    -0.647969
       2B2    -0.606981     2B1    -0.606981     3B1    -0.443676
       3B2    -0.443676

  @DF-RKS Final Energy:  -559.87532814962174

   => Energetics <=

    Nuclear Repulsion Energy =             49.3211221376322868
    One-Electron Energy =                -871.9322809907810097
    Two-Electron Energy =                 291.5042729400977919
    DFT Exchange-Correlation Energy =     -28.8783394015864445
    Empirical Dispersion Energy =           0.0000000000000000
    VV10 Nonlocal Energy =                  0.1098971650156228
    Total Energy =                       -559.8753281496218506

  Dipole Moment: [D]
     X:     0.0000      Y:     0.0000      Z:    -0.9160     Total:     0.9160

  Vibration                       6
  Freq [cm^-1]                 833.8740
  Irrep                           A1
  Reduced mass [u]             22.6381
  Force const [mDyne/A]         9.2745

  ==> Thermochemistry Components <==

  Entropy, S
    Electronic S            0.000 [cal/(mol K)]        0.000 [J/(mol K)]       0.00000000 [mEh/K] (multiplicity = 1)
    Translational S        37.879 [cal/(mol K)]      158.488 [J/(mol K)]       0.06036475 [mEh/K] (mol. weight = 53.9673 [u], P = 101325.00 [Pa])
    Rotational S           13.934 [cal/(mol K)]       58.298 [J/(mol K)]       0.02220460 [mEh/K] (symmetry no. = 1)
    Vibrational S           0.181 [cal/(mol K)]        0.759 [J/(mol K)]       0.00028915 [mEh/K]
  Total S                  51.994 [cal/(mol K)]      217.545 [J/(mol K)]       0.08285850 [mEh/K]
  Correction S              0.000 [cal/(mol K)]        0.000 [J/(mol K)]       0.00000000 [mEh/K]

  Constant volume heat capacity, Cv
    Electronic Cv           0.000 [cal/(mol K)]        0.000 [J/(mol K)]       0.00000000 [mEh/K]
    Translational Cv        2.981 [cal/(mol K)]       12.472 [J/(mol K)]       0.00475022 [mEh/K]
    Rotational Cv           1.987 [cal/(mol K)]        8.314 [J/(mol K)]       0.00316681 [mEh/K]
    Vibrational Cv          0.597 [cal/(mol K)]        2.496 [J/(mol K)]       0.00095062 [mEh/K]
  Total Cv                  5.565 [cal/(mol K)]       23.282 [J/(mol K)]       0.00886765 [mEh/K]
  Correction Cv             0.000 [cal/(mol K)]        0.000 [J/(mol K)]       0.00000000 [mEh/K]

  Constant pressure heat capacity, Cp
    Electronic Cp           0.000 [cal/(mol K)]        0.000 [J/(mol K)]       0.00000000 [mEh/K]
    Translational Cp        4.968 [cal/(mol K)]       20.786 [J/(mol K)]       0.00791703 [mEh/K]
    Rotational Cp           1.987 [cal/(mol K)]        8.314 [J/(mol K)]       0.00316681 [mEh/K]
    Vibrational Cp          0.597 [cal/(mol K)]        2.496 [J/(mol K)]       0.00095062 [mEh/K]
  Total Cp                  7.552 [cal/(mol K)]       31.596 [J/(mol K)]       0.01203446 [mEh/K]
  Correction Cp             0.000 [cal/(mol K)]        0.000 [J/(mol K)]       0.00000000 [mEh/K]

  ==> Thermochemistry Energy Analysis <==

  Raw electronic energy, E0
  Total E0, Electronic energy at well bottom at 0 [K]                 -559.87532854 [Eh]

  Zero-point energy, ZPE_vib = Sum_i nu_i / 2
    Electronic ZPE          0.000 [kcal/mol]        0.000 [kJ/mol]       0.00000000 [Eh]
    Translational ZPE       0.000 [kcal/mol]        0.000 [kJ/mol]       0.00000000 [Eh]
    Rotational ZPE          0.000 [kcal/mol]        0.000 [kJ/mol]       0.00000000 [Eh]
    Vibrational ZPE         1.192 [kcal/mol]        4.988 [kJ/mol]       0.00189970 [Eh]         416.937 [cm^-1]
  Correction ZPE            1.192 [kcal/mol]        4.988 [kJ/mol]       0.00189970 [Eh]         416.937 [cm^-1]
  Total ZPE, Electronic energy at 0 [K]                               -559.87342884 [Eh]

  Thermal Energy, E (includes ZPE)
    Electronic E            0.000 [kcal/mol]        0.000 [kJ/mol]       0.00000000 [Eh]
    Translational E         0.889 [kcal/mol]        3.718 [kJ/mol]       0.00141628 [Eh]
    Rotational E            0.592 [kcal/mol]        2.479 [kJ/mol]       0.00094418 [Eh]
    Vibrational E           1.235 [kcal/mol]        5.169 [kJ/mol]       0.00196888 [Eh]
  Correction E              2.717 [kcal/mol]       11.367 [kJ/mol]       0.00432934 [Eh]
  Total E, Electronic energy at  298.15 [K]                           -559.87099920 [Eh]

  Enthalpy, H_trans = E_trans + k_B * T
    Electronic H            0.000 [kcal/mol]        0.000 [kJ/mol]       0.00000000 [Eh]
    Translational H         1.481 [kcal/mol]        6.197 [kJ/mol]       0.00236046 [Eh]
    Rotational H            0.592 [kcal/mol]        2.479 [kJ/mol]       0.00094418 [Eh]
    Vibrational H           1.235 [kcal/mol]        5.169 [kJ/mol]       0.00196888 [Eh]
  Correction H              3.309 [kcal/mol]       13.846 [kJ/mol]       0.00527353 [Eh]
  Total H, Enthalpy at  298.15 [K]                                    -559.87005502 [Eh]

  Gibbs free energy, G = H - T * S
    Electronic G            0.000 [kcal/mol]        0.000 [kJ/mol]       0.00000000 [Eh]
    Translational G        -9.813 [kcal/mol]      -41.056 [kJ/mol]      -0.01563729 [Eh]
    Rotational G           -3.562 [kcal/mol]      -14.903 [kJ/mol]      -0.00567612 [Eh]
    Vibrational G           1.181 [kcal/mol]        4.943 [kJ/mol]       0.00188267 [Eh]
  Correction G            -12.193 [kcal/mol]      -51.015 [kJ/mol]      -0.01943074 [Eh]
  Total G, Free enthalpy at  298.15 [K]                               -559.89475928 [Eh]

*** Psi4 exiting successfully. Buy a developer a beer!
