                               Psi4 1.3.2 release

  ==> Input File <==

--------------------------------------------------------------------------
memory 144 GB

molecule {
0 1
C 0.0000000000 0.0000000000 0.0000000000
O 0.0000000000 0.0000000000 1.1626000000
O 0.0000000000 0.0000000000 -1.1626000000
}

set dynamic_level 1
set basis aug-cc-pV(D+d)Z

optimize("wB97X-V")
frequencies("wB97X-V")
--------------------------------------------------------------------------

    Molecular point group: d2h
  Charge       = 0
  Multiplicity = 1
  Basis Set: AUG-CC-PV(D+D)Z
    Blend: AUG-CC-PV(D+D)Z
  Basis Set: (AUG-CC-PV(D+D)Z AUX)
    Blend: AUG-CC-PVDZ-JKFIT
  @DF-RKS Final Energy:  -188.55245940974069
    Total Energy =                       -188.5524594097406634
    Molecular point group: d2h
  Basis Set: AUG-CC-PV(D+D)Z
    Blend: AUG-CC-PV(D+D)Z
  Basis Set: (AUG-CC-PV(D+D)Z AUX)
    Blend: AUG-CC-PVDZ-JKFIT
  @DF-RKS Final Energy:  -188.55244504816073
    Total Energy =                       -188.5524450481607062
  Basis Set: AUG-CC-PV(D+D)Z
    Blend: AUG-CC-PV(D+D)Z
  Basis Set: (AUG-CC-PV(D+D)Z AUX)
    Blend: AUG-CC-PVDZ-JKFIT
  @DF-RKS Final Energy:  -188.55247192643341
    Total Energy =                       -188.5524719264334124
  Basis Set: AUG-CC-PV(D+D)Z
    Blend: AUG-CC-PV(D+D)Z
  Basis Set: (AUG-CC-PV(D+D)Z AUX)
    Blend: AUG-CC-PVDZ-JKFIT
  @DF-RKS Final Energy:  -188.55250851866987
    Total Energy =                       -188.5525085186698391
  @DF-RKS Final Energy:  -188.55250660125824
    Total Energy =                       -188.5525066012582442
  @DF-RKS Final Energy:  -188.55250862947133
    Total Energy =                       -188.5525086294713333
  @DF-RKS Final Energy:  -188.55250880373356
    Total Energy =                       -188.5525088037335308
  @DF-RKS Final Energy:  -188.55250788978390
    Total Energy =                       -188.5525078897838682
  @DF-RKS Final Energy:  -188.55250791498278
    Total Energy =                       -188.5525079149827832
  **** Optimization is complete! (in 3 steps) ****
    Final optimized geometry and variables:
  @DF-RKS Final Energy:  -188.55250880373359
    Total Energy =                       -188.5525088037335877
  @DF-RKS Final Energy:  -188.55250789064632
    Total Energy =                       -188.5525078906463250
  @DF-RKS Final Energy:  -188.55250791498290
    Total Energy =                       -188.5525079149828684
  @DF-RKS Final Energy:  -188.55250880373359
    Total Energy =                       -188.5525088037335877
  @DF-RKS Final Energy:  -188.55250789064624
    Total Energy =                       -188.5525078906462397
  Basis Set: AUG-CC-PV(D+D)Z
    Blend: AUG-CC-PV(D+D)Z
  Basis Set: (AUG-CC-PV(D+D)Z AUX)
    Blend: AUG-CC-PVDZ-JKFIT
  @DF-RKS Final Energy:  -188.55250791498275
    Total Energy =                       -188.5525079149827548
  Basis Set: AUG-CC-PV(D+D)Z
    Blend: AUG-CC-PV(D+D)Z
  Basis Set: (AUG-CC-PV(D+D)Z AUX)
    Blend: AUG-CC-PVDZ-JKFIT
  @DF-RKS Final Energy:  -188.55250603862473
    Total Energy =                       -188.5525060386247560
  Multiplicity = 1
  Basis Set: AUG-CC-PV(D+D)Z
    Blend: AUG-CC-PV(D+D)Z
  Basis Set: (AUG-CC-PV(D+D)Z AUX)
    Blend: AUG-CC-PVDZ-JKFIT
  @DF-RKS Final Energy:  -188.55250858262863
    Total Energy =                       -188.5525085826286329
    Molecular point group: c2v

    Geometry (in Angstrom), charge = 0, multiplicity = 1:

       Center              X                  Y                   Z               Mass
    ------------   -----------------  -----------------  -----------------  -----------------
         C           -0.000651343880     0.000000000000     0.000000000000    12.000000000000
         O            0.000244331612     0.000000000000     1.166049696684    15.994914619570
         O            0.000244331612     0.000000000000    -1.166049696684    15.994914619570

  Charge       = 0
  Multiplicity = 1
  Basis Set: AUG-CC-PV(D+D)Z
    Blend: AUG-CC-PV(D+D)Z
  Basis Set: (AUG-CC-PV(D+D)Z AUX)
    Blend: AUG-CC-PVDZ-JKFIT

    Orbital Energies [Eh]
    ---------------------

    Doubly Occupied:

       1A1   -19.321848     1B2   -19.321840     2A1   -10.488158
       3A1    -1.303130     2B2    -1.258844     4A1    -0.690294
       3B2    -0.641148     5A1    -0.639873     1B1    -0.639873
       1A2    -0.482635     4B2    -0.482635

  @DF-RKS Final Energy:  -188.55250858218625

   => Energetics <=

    Nuclear Repulsion Energy =             58.0890061303238241
    One-Electron Energy =                -371.9592140874797224
    Two-Electron Energy =                 141.2603152855508029
    DFT Exchange-Correlation Energy =     -16.0343815955226603
    Empirical Dispersion Energy =           0.0000000000000000
    VV10 Nonlocal Energy =                  0.0917656849415357
    Total Energy =                       -188.5525085821862206

  Dipole Moment: [D]
     X:    -0.0023      Y:     0.0000      Z:     0.0000     Total:     0.0023

  Vibration                       6                   7                   8
  Freq [cm^-1]                 683.6731            684.3567           1380.0416
  Irrep                          B2u                 B3u                  Ag
  Reduced mass [u]             12.8774             12.8774             15.9949
  Force const [mDyne/A]         3.5463              3.5534             17.9480

  Vibration                       9
  Freq [cm^-1]                2417.7166
  Irrep                          B1u
  Reduced mass [u]             12.8774
  Force const [mDyne/A]        44.3494

  ==> Thermochemistry Components <==

  Entropy, S
    Electronic S            0.000 [cal/(mol K)]        0.000 [J/(mol K)]       0.00000000 [mEh/K] (multiplicity = 1)
    Translational S        37.270 [cal/(mol K)]      155.938 [J/(mol K)]       0.05939371 [mEh/K] (mol. weight = 43.9898 [u], P = 101325.00 [Pa])
    Rotational S           13.093 [cal/(mol K)]       54.780 [J/(mol K)]       0.02086458 [mEh/K] (symmetry no. = 2)
    Vibrational S           0.671 [cal/(mol K)]        2.807 [J/(mol K)]       0.00106921 [mEh/K]
  Total S                  51.034 [cal/(mol K)]      213.525 [J/(mol K)]       0.08132750 [mEh/K]
  Correction S              0.000 [cal/(mol K)]        0.000 [J/(mol K)]       0.00000000 [mEh/K]

  Constant volume heat capacity, Cv
    Electronic Cv           0.000 [cal/(mol K)]        0.000 [J/(mol K)]       0.00000000 [mEh/K]
    Translational Cv        2.981 [cal/(mol K)]       12.472 [J/(mol K)]       0.00475022 [mEh/K]
    Rotational Cv           1.987 [cal/(mol K)]        8.314 [J/(mol K)]       0.00316681 [mEh/K]
    Vibrational Cv          1.836 [cal/(mol K)]        7.681 [J/(mol K)]       0.00292560 [mEh/K]
  Total Cv                  6.804 [cal/(mol K)]       28.467 [J/(mol K)]       0.01084263 [mEh/K]
  Correction Cv             0.000 [cal/(mol K)]        0.000 [J/(mol K)]       0.00000000 [mEh/K]

  Constant pressure heat capacity, Cp
    Electronic Cp           0.000 [cal/(mol K)]        0.000 [J/(mol K)]       0.00000000 [mEh/K]
    Translational Cp        4.968 [cal/(mol K)]       20.786 [J/(mol K)]       0.00791703 [mEh/K]
    Rotational Cp           1.987 [cal/(mol K)]        8.314 [J/(mol K)]       0.00316681 [mEh/K]
    Vibrational Cp          1.836 [cal/(mol K)]        7.681 [J/(mol K)]       0.00292560 [mEh/K]
  Total Cp                  8.791 [cal/(mol K)]       36.782 [J/(mol K)]       0.01400944 [mEh/K]
  Correction Cp             0.000 [cal/(mol K)]        0.000 [J/(mol K)]       0.00000000 [mEh/K]

  ==> Thermochemistry Energy Analysis <==

  Raw electronic energy, E0
  Total E0, Electronic energy at well bottom at 0 [K]                 -188.55250880 [Eh]

  Zero-point energy, ZPE_vib = Sum_i nu_i / 2
    Electronic ZPE          0.000 [kcal/mol]        0.000 [kJ/mol]       0.00000000 [Eh]
    Translational ZPE       0.000 [kcal/mol]        0.000 [kJ/mol]       0.00000000 [Eh]
    Rotational ZPE          0.000 [kcal/mol]        0.000 [kJ/mol]       0.00000000 [Eh]
    Vibrational ZPE         7.385 [kcal/mol]       30.898 [kJ/mol]       0.01176853 [Eh]        2582.894 [cm^-1]
  Correction ZPE            7.385 [kcal/mol]       30.898 [kJ/mol]       0.01176853 [Eh]        2582.894 [cm^-1]
  Total ZPE, Electronic energy at 0 [K]                               -188.54074027 [Eh]

  Thermal Energy, E (includes ZPE)
    Electronic E            0.000 [kcal/mol]        0.000 [kJ/mol]       0.00000000 [Eh]
    Translational E         0.889 [kcal/mol]        3.718 [kJ/mol]       0.00141628 [Eh]
    Rotational E            0.592 [kcal/mol]        2.479 [kJ/mol]       0.00094418 [Eh]
    Vibrational E           7.540 [kcal/mol]       31.546 [kJ/mol]       0.01201519 [Eh]
  Correction E              9.021 [kcal/mol]       37.743 [kJ/mol]       0.01437565 [Eh]
  Total E, Electronic energy at  298.15 [K]                           -188.53813315 [Eh]

  Enthalpy, H_trans = E_trans + k_B * T
    Electronic H            0.000 [kcal/mol]        0.000 [kJ/mol]       0.00000000 [Eh]
    Translational H         1.481 [kcal/mol]        6.197 [kJ/mol]       0.00236046 [Eh]
    Rotational H            0.592 [kcal/mol]        2.479 [kJ/mol]       0.00094418 [Eh]
    Vibrational H           7.540 [kcal/mol]       31.546 [kJ/mol]       0.01201519 [Eh]
  Correction H              9.613 [kcal/mol]       40.222 [kJ/mol]       0.01531984 [Eh]
  Total H, Enthalpy at  298.15 [K]                                    -188.53718897 [Eh]

  Gibbs free energy, G = H - T * S
    Electronic G            0.000 [kcal/mol]        0.000 [kJ/mol]       0.00000000 [Eh]
    Translational G        -9.631 [kcal/mol]      -40.296 [kJ/mol]      -0.01534777 [Eh]
    Rotational G           -3.311 [kcal/mol]      -13.854 [kJ/mol]      -0.00527659 [Eh]
    Vibrational G           7.340 [kcal/mol]       30.709 [kJ/mol]       0.01169641 [Eh]
  Correction G             -5.602 [kcal/mol]      -23.440 [kJ/mol]      -0.00892796 [Eh]
  Total G, Free enthalpy at  298.15 [K]                               -188.56143676 [Eh]

*** Psi4 exiting successfully. Buy a developer a beer!
