                               Psi4 1.3.2 release

  ==> Input File <==

--------------------------------------------------------------------------
memory 144 GB

molecule {
0 1
C 0.0000000000 0.0000000000 0.0000000000
O 0.0000000000 0.0000000000 1.1314000000
}

set dynamic_level 1
set basis aug-cc-pV(D+d)Z

optimize("wB97X-V")
frequencies("wB97X-V")
--------------------------------------------------------------------------

    Molecular point group: c2v
  Charge       = 0
  Multiplicity = 1
  Basis Set: AUG-CC-PV(D+D)Z
    Blend: AUG-CC-PV(D+D)Z
  Basis Set: (AUG-CC-PV(D+D)Z AUX)
    Blend: AUG-CC-PVDZ-JKFIT
  @DF-RKS Final Energy:  -113.29577975716720
    Total Energy =                       -113.2957797571671961
    Molecular point group: c2v
  Basis Set: AUG-CC-PV(D+D)Z
    Blend: AUG-CC-PV(D+D)Z
  Basis Set: (AUG-CC-PV(D+D)Z AUX)
    Blend: AUG-CC-PVDZ-JKFIT
  @DF-RKS Final Energy:  -113.29579045433495
    Total Energy =                       -113.2957904543349485
  Basis Set: AUG-CC-PV(D+D)Z
    Blend: AUG-CC-PV(D+D)Z
  Basis Set: (AUG-CC-PV(D+D)Z AUX)
    Blend: AUG-CC-PVDZ-JKFIT
  @DF-RKS Final Energy:  -113.29576432427432
    Total Energy =                       -113.2957643242743018
  Basis Set: AUG-CC-PV(D+D)Z
    Blend: AUG-CC-PV(D+D)Z
  Basis Set: (AUG-CC-PV(D+D)Z AUX)
    Blend: AUG-CC-PVDZ-JKFIT
  @DF-RKS Final Energy:  -113.29579755682737
    Total Energy =                       -113.2957975568273667
  @DF-RKS Final Energy:  -113.29579695917384
    Total Energy =                       -113.2957969591738419
  @DF-RKS Final Energy:  -113.29579349635685
    Total Energy =                       -113.2957934963568505
  @DF-RKS Final Energy:  -113.29579787687732
    Total Energy =                       -113.2957978768773160
  @DF-RKS Final Energy:  -113.29579557024758
    Total Energy =                       -113.2957955702475772
  @DF-RKS Final Energy:  -113.29579553712783
    Total Energy =                       -113.2957955371278302
  **** Optimization is complete! (in 3 steps) ****
    Final optimized geometry and variables:
  @DF-RKS Final Energy:  -113.29579787687734
    Total Energy =                       -113.2957978768773302
  @DF-RKS Final Energy:  -113.29579557024763
    Total Energy =                       -113.2957955702476340
  Basis Set: AUG-CC-PV(D+D)Z
    Blend: AUG-CC-PV(D+D)Z
  Basis Set: (AUG-CC-PV(D+D)Z AUX)
    Blend: AUG-CC-PVDZ-JKFIT
  @DF-RKS Final Energy:  -113.29579553712784
    Total Energy =                       -113.2957955371278587
  Basis Set: AUG-CC-PV(D+D)Z
    Blend: AUG-CC-PV(D+D)Z
  Basis Set: (AUG-CC-PV(D+D)Z AUX)
    Blend: AUG-CC-PVDZ-JKFIT
  @DF-RKS Final Energy:  -113.29579787687740
    Total Energy =                       -113.2957978768774012
  Multiplicity = 1
  Basis Set: AUG-CC-PV(D+D)Z
    Blend: AUG-CC-PV(D+D)Z
  Basis Set: (AUG-CC-PV(D+D)Z AUX)
    Blend: AUG-CC-PVDZ-JKFIT
  @DF-RKS Final Energy:  -113.29579557024766
    Total Energy =                       -113.2957955702476625
    Molecular point group: c2v

    Geometry (in Angstrom), charge = 0, multiplicity = 1:

       Center              X                  Y                   Z               Mass
    ------------   -----------------  -----------------  -----------------  -----------------
         C            0.000000000000     0.000000000000    -0.647454693951    12.000000000000
         O            0.000000000000     0.000000000000     0.485745407976    15.994914619570

  Charge       = 0
  Multiplicity = 1
  Basis Set: AUG-CC-PV(D+D)Z
    Blend: AUG-CC-PV(D+D)Z
  Basis Set: (AUG-CC-PV(D+D)Z AUX)
    Blend: AUG-CC-PVDZ-JKFIT

    Orbital Energies [Eh]
    ---------------------

    Doubly Occupied:

       1A1   -19.343922     2A1   -10.407597     3A1    -1.300719
       4A1    -0.699510     1B1    -0.589264     1B2    -0.589264
       5A1    -0.493644

  @DF-RKS Final Energy:  -113.29579553712792

   => Energetics <=

    Nuclear Repulsion Energy =             22.4148463002827576
    One-Electron Energy =                -197.9622981769264811
    Two-Electron Energy =                  72.0218667757586672
    DFT Exchange-Correlation Energy =      -9.8293432028941723
    Empirical Dispersion Energy =           0.0000000000000000
    VV10 Nonlocal Energy =                  0.0591327666513067
    Total Energy =                       -113.2957955371279155

  Dipole Moment: [D]
     X:     0.0000      Y:     0.0000      Z:     0.0641     Total:     0.0641

  Vibration                       6
  Freq [cm^-1]                2216.1115
  Irrep                           A1
  Reduced mass [u]             13.4388
  Force const [mDyne/A]        38.8859

  ==> Thermochemistry Components <==

  Entropy, S
    Electronic S            0.000 [cal/(mol K)]        0.000 [J/(mol K)]       0.00000000 [mEh/K] (multiplicity = 1)
    Translational S        35.923 [cal/(mol K)]      150.302 [J/(mol K)]       0.05724692 [mEh/K] (mol. weight = 27.9949 [u], P = 101325.00 [Pa])
    Rotational S           11.299 [cal/(mol K)]       47.276 [J/(mol K)]       0.01800657 [mEh/K] (symmetry no. = 1)
    Vibrational S           0.001 [cal/(mol K)]        0.002 [J/(mol K)]       0.00000084 [mEh/K]
  Total S                  47.223 [cal/(mol K)]      197.580 [J/(mol K)]       0.07525434 [mEh/K]
  Correction S              0.000 [cal/(mol K)]        0.000 [J/(mol K)]       0.00000000 [mEh/K]

  Constant volume heat capacity, Cv
    Electronic Cv           0.000 [cal/(mol K)]        0.000 [J/(mol K)]       0.00000000 [mEh/K]
    Translational Cv        2.981 [cal/(mol K)]       12.472 [J/(mol K)]       0.00475022 [mEh/K]
    Rotational Cv           1.987 [cal/(mol K)]        8.314 [J/(mol K)]       0.00316681 [mEh/K]
    Vibrational Cv          0.005 [cal/(mol K)]        0.022 [J/(mol K)]       0.00000821 [mEh/K]
  Total Cv                  4.973 [cal/(mol K)]       20.808 [J/(mol K)]       0.00792524 [mEh/K]
  Correction Cv             0.000 [cal/(mol K)]        0.000 [J/(mol K)]       0.00000000 [mEh/K]

  Constant pressure heat capacity, Cp
    Electronic Cp           0.000 [cal/(mol K)]        0.000 [J/(mol K)]       0.00000000 [mEh/K]
    Translational Cp        4.968 [cal/(mol K)]       20.786 [J/(mol K)]       0.00791703 [mEh/K]
    Rotational Cp           1.987 [cal/(mol K)]        8.314 [J/(mol K)]       0.00316681 [mEh/K]
    Vibrational Cp          0.005 [cal/(mol K)]        0.022 [J/(mol K)]       0.00000821 [mEh/K]
  Total Cp                  6.960 [cal/(mol K)]       29.122 [J/(mol K)]       0.01109205 [mEh/K]
  Correction Cp             0.000 [cal/(mol K)]        0.000 [J/(mol K)]       0.00000000 [mEh/K]

  ==> Thermochemistry Energy Analysis <==

  Raw electronic energy, E0
  Total E0, Electronic energy at well bottom at 0 [K]                 -113.29579788 [Eh]

  Zero-point energy, ZPE_vib = Sum_i nu_i / 2
    Electronic ZPE          0.000 [kcal/mol]        0.000 [kJ/mol]       0.00000000 [Eh]
    Translational ZPE       0.000 [kcal/mol]        0.000 [kJ/mol]       0.00000000 [Eh]
    Rotational ZPE          0.000 [kcal/mol]        0.000 [kJ/mol]       0.00000000 [Eh]
    Vibrational ZPE         3.168 [kcal/mol]       13.255 [kJ/mol]       0.00504867 [Eh]        1108.056 [cm^-1]
  Correction ZPE            3.168 [kcal/mol]       13.255 [kJ/mol]       0.00504867 [Eh]        1108.056 [cm^-1]
  Total ZPE, Electronic energy at 0 [K]                               -113.29074920 [Eh]

  Thermal Energy, E (includes ZPE)
    Electronic E            0.000 [kcal/mol]        0.000 [kJ/mol]       0.00000000 [Eh]
    Translational E         0.889 [kcal/mol]        3.718 [kJ/mol]       0.00141628 [Eh]
    Rotational E            0.592 [kcal/mol]        2.479 [kJ/mol]       0.00094418 [Eh]
    Vibrational E           3.168 [kcal/mol]       13.256 [kJ/mol]       0.00504890 [Eh]
  Correction E              4.649 [kcal/mol]       19.453 [kJ/mol]       0.00740936 [Eh]
  Total E, Electronic energy at  298.15 [K]                           -113.28838851 [Eh]

  Enthalpy, H_trans = E_trans + k_B * T
    Electronic H            0.000 [kcal/mol]        0.000 [kJ/mol]       0.00000000 [Eh]
    Translational H         1.481 [kcal/mol]        6.197 [kJ/mol]       0.00236046 [Eh]
    Rotational H            0.592 [kcal/mol]        2.479 [kJ/mol]       0.00094418 [Eh]
    Vibrational H           3.168 [kcal/mol]       13.256 [kJ/mol]       0.00504890 [Eh]
  Correction H              5.242 [kcal/mol]       21.932 [kJ/mol]       0.00835355 [Eh]
  Total H, Enthalpy at  298.15 [K]                                    -113.28744433 [Eh]

  Gibbs free energy, G = H - T * S
    Electronic G            0.000 [kcal/mol]        0.000 [kJ/mol]       0.00000000 [Eh]
    Translational G        -9.229 [kcal/mol]      -38.615 [kJ/mol]      -0.01470771 [Eh]
    Rotational G           -2.776 [kcal/mol]      -11.616 [kJ/mol]      -0.00442448 [Eh]
    Vibrational G           3.168 [kcal/mol]       13.255 [kJ/mol]       0.00504865 [Eh]
  Correction G             -8.838 [kcal/mol]      -36.976 [kJ/mol]      -0.01408353 [Eh]
  Total G, Free enthalpy at  298.15 [K]                               -113.30988141 [Eh]

*** Psi4 exiting successfully. Buy a developer a beer!
