                               Psi4 1.3.2 release

  ==> Input File <==

--------------------------------------------------------------------------
memory 144 GB

molecule {
0 1
C 0.0000000000 0.0000000000 0.0000000000
S 0.0000000000 0.0000000000 1.5576337400
S 0.0000000000 0.0000000000 -1.5576337400
}

set dynamic_level 1
set basis aug-cc-pV(D+d)Z

optimize("wB97X-V")
frequencies("wB97X-V")
--------------------------------------------------------------------------

    Molecular point group: d2h
  Charge       = 0
  Multiplicity = 1
  Basis Set: AUG-CC-PV(D+D)Z
    Blend: AUG-CC-PV(D+D)Z
  Basis Set: (AUG-CC-PV(D+D)Z AUX)
    Blend: AUG-CC-PVDZ-JKFIT
  @DF-RKS Final Energy:  -834.36601644168422
    Total Energy =                       -834.3660164416842235
    Molecular point group: d2h
  Basis Set: AUG-CC-PV(D+D)Z
    Blend: AUG-CC-PV(D+D)Z
  Basis Set: (AUG-CC-PV(D+D)Z AUX)
    Blend: AUG-CC-PVDZ-JKFIT
  @DF-RKS Final Energy:  -834.36601907067779
    Total Energy =                       -834.3660190706777939
  Basis Set: AUG-CC-PV(D+D)Z
    Blend: AUG-CC-PV(D+D)Z
  Basis Set: (AUG-CC-PV(D+D)Z AUX)
    Blend: AUG-CC-PVDZ-JKFIT
  @DF-RKS Final Energy:  -834.36601333862018
    Total Energy =                       -834.3660133386201778
  Basis Set: AUG-CC-PV(D+D)Z
    Blend: AUG-CC-PV(D+D)Z
  Basis Set: (AUG-CC-PV(D+D)Z AUX)
    Blend: AUG-CC-PVDZ-JKFIT
  @DF-RKS Final Energy:  -834.36602528078743
    Total Energy =                       -834.3660252807873121
  @DF-RKS Final Energy:  -834.36602508372027
    Total Energy =                       -834.3660250837203876
  @DF-RKS Final Energy:  -834.36602500511390
    Total Energy =                       -834.3660250051140110
  **** Optimization is complete! (in 2 steps) ****
    Final optimized geometry and variables:
  @DF-RKS Final Energy:  -834.36602528078765
    Total Energy =                       -834.3660252807876532
  @DF-RKS Final Energy:  -834.36602508372050
    Total Energy =                       -834.3660250837205012
  @DF-RKS Final Energy:  -834.36602500511424
    Total Energy =                       -834.3660250051142384
  @DF-RKS Final Energy:  -834.36602528078765
    Total Energy =                       -834.3660252807877669
  @DF-RKS Final Energy:  -834.36602508372039
    Total Energy =                       -834.3660250837205012
  Basis Set: AUG-CC-PV(D+D)Z
    Blend: AUG-CC-PV(D+D)Z
  Basis Set: (AUG-CC-PV(D+D)Z AUX)
    Blend: AUG-CC-PVDZ-JKFIT
  @DF-RKS Final Energy:  -834.36602500511401
    Total Energy =                       -834.3660250051140110
  Basis Set: AUG-CC-PV(D+D)Z
    Blend: AUG-CC-PV(D+D)Z
  Basis Set: (AUG-CC-PV(D+D)Z AUX)
    Blend: AUG-CC-PVDZ-JKFIT
  @DF-RKS Final Energy:  -834.36602407558667
    Total Energy =                       -834.3660240755866653
  Multiplicity = 1
  Basis Set: AUG-CC-PV(D+D)Z
    Blend: AUG-CC-PV(D+D)Z
  Basis Set: (AUG-CC-PV(D+D)Z AUX)
    Blend: AUG-CC-PVDZ-JKFIT
  @DF-RKS Final Energy:  -834.36602519975122
    Total Energy =                       -834.3660251997512205
    Molecular point group: c2v

    Geometry (in Angstrom), charge = 0, multiplicity = 1:

       Center              X                  Y                   Z               Mass
    ------------   -----------------  -----------------  -----------------  -----------------
         C           -0.000700864006     0.000000000000     0.000000000000    12.000000000000
         S            0.000131526794     0.000000000000     1.555624822404    31.972071174400
         S            0.000131526794     0.000000000000    -1.555624822404    31.972071174400

  Charge       = 0
  Multiplicity = 1
  Basis Set: AUG-CC-PV(D+D)Z
    Blend: AUG-CC-PV(D+D)Z
  Basis Set: (AUG-CC-PV(D+D)Z AUX)
    Blend: AUG-CC-PVDZ-JKFIT

    Orbital Energies [Eh]
    ---------------------

    Doubly Occupied:

       1B2   -88.912776     1A1   -88.912773     2A1   -10.425515
       2B2    -8.080392     3A1    -8.080360     3B2    -6.035873
       4A1    -6.035872     1A2    -6.030478     4B2    -6.030478
       1B1    -6.030477     5A1    -6.030477     6A1    -1.001382
       5B2    -0.903543     7A1    -0.624914     6B2    -0.539980
       8A1    -0.505010     2B1    -0.505010     2A2    -0.366429
       7B2    -0.366429

  @DF-RKS Final Energy:  -834.36602519944017

   => Energetics <=

    Nuclear Repulsion Energy =            108.8544554127439028
    One-Electron Energy =               -1366.6674008177874384
    Two-Electron Energy =                 465.7930321270360423
    DFT Exchange-Correlation Energy =     -42.5031870614639971
    Empirical Dispersion Energy =           0.0000000000000000
    VV10 Nonlocal Energy =                  0.1570751400314435
    Total Energy =                       -834.3660251994401733

  Dipole Moment: [D]
     X:     0.0006      Y:     0.0000      Z:     0.0000     Total:     0.0006

  Vibration                       6                   7                   8
  Freq [cm^-1]                 413.8943            414.6879            706.8802
  Irrep                          B2u                 B3u                  Ag
  Reduced mass [u]             13.3142             13.3142             31.9721
  Force const [mDyne/A]         1.3438              1.3490              9.4127

  Vibration                       9
  Freq [cm^-1]                1596.1695
  Irrep                          B1u
  Reduced mass [u]             13.3142
  Force const [mDyne/A]        19.9858

  ==> Thermochemistry Components <==

  Entropy, S
    Electronic S            0.000 [cal/(mol K)]        0.000 [J/(mol K)]       0.00000000 [mEh/K] (multiplicity = 1)
    Translational S        38.898 [cal/(mol K)]      162.748 [J/(mol K)]       0.06198752 [mEh/K] (mol. weight = 75.9441 [u], P = 101325.00 [Pa])
    Rotational S           15.615 [cal/(mol K)]       65.332 [J/(mol K)]       0.02488358 [mEh/K] (symmetry no. = 2)
    Vibrational S           2.129 [cal/(mol K)]        8.908 [J/(mol K)]       0.00339280 [mEh/K]
  Total S                  56.641 [cal/(mol K)]      236.988 [J/(mol K)]       0.09026390 [mEh/K]
  Correction S              0.000 [cal/(mol K)]        0.000 [J/(mol K)]       0.00000000 [mEh/K]

  Constant volume heat capacity, Cv
    Electronic Cv           0.000 [cal/(mol K)]        0.000 [J/(mol K)]       0.00000000 [mEh/K]
    Translational Cv        2.981 [cal/(mol K)]       12.472 [J/(mol K)]       0.00475022 [mEh/K]
    Rotational Cv           1.987 [cal/(mol K)]        8.314 [J/(mol K)]       0.00316681 [mEh/K]
    Vibrational Cv          3.748 [cal/(mol K)]       15.681 [J/(mol K)]       0.00597250 [mEh/K]
  Total Cv                  8.716 [cal/(mol K)]       36.467 [J/(mol K)]       0.01388953 [mEh/K]
  Correction Cv             0.000 [cal/(mol K)]        0.000 [J/(mol K)]       0.00000000 [mEh/K]

  Constant pressure heat capacity, Cp
    Electronic Cp           0.000 [cal/(mol K)]        0.000 [J/(mol K)]       0.00000000 [mEh/K]
    Translational Cp        4.968 [cal/(mol K)]       20.786 [J/(mol K)]       0.00791703 [mEh/K]
    Rotational Cp           1.987 [cal/(mol K)]        8.314 [J/(mol K)]       0.00316681 [mEh/K]
    Vibrational Cp          3.748 [cal/(mol K)]       15.681 [J/(mol K)]       0.00597250 [mEh/K]
  Total Cp                 10.703 [cal/(mol K)]       44.781 [J/(mol K)]       0.01705634 [mEh/K]
  Correction Cp             0.000 [cal/(mol K)]        0.000 [J/(mol K)]       0.00000000 [mEh/K]

  ==> Thermochemistry Energy Analysis <==

  Raw electronic energy, E0
  Total E0, Electronic energy at well bottom at 0 [K]                 -834.36602528 [Eh]

  Zero-point energy, ZPE_vib = Sum_i nu_i / 2
    Electronic ZPE          0.000 [kcal/mol]        0.000 [kJ/mol]       0.00000000 [Eh]
    Translational ZPE       0.000 [kcal/mol]        0.000 [kJ/mol]       0.00000000 [Eh]
    Rotational ZPE          0.000 [kcal/mol]        0.000 [kJ/mol]       0.00000000 [Eh]
    Vibrational ZPE         4.477 [kcal/mol]       18.731 [kJ/mol]       0.00713438 [Eh]        1565.816 [cm^-1]
  Correction ZPE            4.477 [kcal/mol]       18.731 [kJ/mol]       0.00713438 [Eh]        1565.816 [cm^-1]
  Total ZPE, Electronic energy at 0 [K]                               -834.35889090 [Eh]

  Thermal Energy, E (includes ZPE)
    Electronic E            0.000 [kcal/mol]        0.000 [kJ/mol]       0.00000000 [Eh]
    Translational E         0.889 [kcal/mol]        3.718 [kJ/mol]       0.00141628 [Eh]
    Rotational E            0.592 [kcal/mol]        2.479 [kJ/mol]       0.00094418 [Eh]
    Vibrational E           4.919 [kcal/mol]       20.581 [kJ/mol]       0.00783901 [Eh]
  Correction E              6.400 [kcal/mol]       26.779 [kJ/mol]       0.01019947 [Eh]
  Total E, Electronic energy at  298.15 [K]                           -834.35582581 [Eh]

  Enthalpy, H_trans = E_trans + k_B * T
    Electronic H            0.000 [kcal/mol]        0.000 [kJ/mol]       0.00000000 [Eh]
    Translational H         1.481 [kcal/mol]        6.197 [kJ/mol]       0.00236046 [Eh]
    Rotational H            0.592 [kcal/mol]        2.479 [kJ/mol]       0.00094418 [Eh]
    Vibrational H           4.919 [kcal/mol]       20.581 [kJ/mol]       0.00783901 [Eh]
  Correction H              6.993 [kcal/mol]       29.258 [kJ/mol]       0.01114366 [Eh]
  Total H, Enthalpy at  298.15 [K]                                    -834.35488162 [Eh]

  Gibbs free energy, G = H - T * S
    Electronic G            0.000 [kcal/mol]        0.000 [kJ/mol]       0.00000000 [Eh]
    Translational G       -10.116 [kcal/mol]      -42.326 [kJ/mol]      -0.01612112 [Eh]
    Rotational G           -4.063 [kcal/mol]      -17.000 [kJ/mol]      -0.00647486 [Eh]
    Vibrational G           4.284 [kcal/mol]       17.925 [kJ/mol]       0.00682745 [Eh]
  Correction G             -9.895 [kcal/mol]      -41.400 [kJ/mol]      -0.01576852 [Eh]
  Total G, Free enthalpy at  298.15 [K]                               -834.38179381 [Eh]

*** Psi4 exiting successfully. Buy a developer a beer!
