                               Psi4 1.3.2 release

  ==> Input File <==

--------------------------------------------------------------------------
memory 144 GB

molecule {
0 1
C 0.0000000000 0.0000000000 0.0000000000
S 0.0000000000 0.0000000000 1.5415329200
}

set dynamic_level 1
set basis aug-cc-pV(D+d)Z

optimize("wB97X-V")
frequencies("wB97X-V")
--------------------------------------------------------------------------

    Molecular point group: c2v
  Charge       = 0
  Multiplicity = 1
  Basis Set: AUG-CC-PV(D+D)Z
    Blend: AUG-CC-PV(D+D)Z
  Basis Set: (AUG-CC-PV(D+D)Z AUX)
    Blend: AUG-CC-PVDZ-JKFIT
  @DF-RKS Final Energy:  -436.15104495620170
    Total Energy =                       -436.1510449562017016
    Molecular point group: c2v
  Basis Set: AUG-CC-PV(D+D)Z
    Blend: AUG-CC-PV(D+D)Z
  Basis Set: (AUG-CC-PV(D+D)Z AUX)
    Blend: AUG-CC-PVDZ-JKFIT
  @DF-RKS Final Energy:  -436.15102783923760
    Total Energy =                       -436.1510278392375426
  Basis Set: AUG-CC-PV(D+D)Z
    Blend: AUG-CC-PV(D+D)Z
  Basis Set: (AUG-CC-PV(D+D)Z AUX)
    Blend: AUG-CC-PVDZ-JKFIT
  @DF-RKS Final Energy:  -436.15106037407855
    Total Energy =                       -436.1510603740786109
  Basis Set: AUG-CC-PV(D+D)Z
    Blend: AUG-CC-PV(D+D)Z
  Basis Set: (AUG-CC-PV(D+D)Z AUX)
    Blend: AUG-CC-PVDZ-JKFIT
  @DF-RKS Final Energy:  -436.15112143488784
    Total Energy =                       -436.1511214348878980
  @DF-RKS Final Energy:  -436.15111956763849
    Total Energy =                       -436.1511195676384887
  @DF-RKS Final Energy:  -436.15112152976070
    Total Energy =                       -436.1511215297607009
  @DF-RKS Final Energy:  -436.15112170728071
    Total Energy =                       -436.1511217072807085
  @DF-RKS Final Energy:  -436.15112084068477
    Total Energy =                       -436.1511208406847118
  @DF-RKS Final Energy:  -436.15112079699492
    Total Energy =                       -436.1511207969949737
  **** Optimization is complete! (in 3 steps) ****
    Final optimized geometry and variables:
  @DF-RKS Final Energy:  -436.15112170728059
    Total Energy =                       -436.1511217072805948
  @DF-RKS Final Energy:  -436.15112084051043
    Total Energy =                       -436.1511208405103730
  Basis Set: AUG-CC-PV(D+D)Z
    Blend: AUG-CC-PV(D+D)Z
  Basis Set: (AUG-CC-PV(D+D)Z AUX)
    Blend: AUG-CC-PVDZ-JKFIT
  @DF-RKS Final Energy:  -436.15112079699520
    Total Energy =                       -436.1511207969952011
  Basis Set: AUG-CC-PV(D+D)Z
    Blend: AUG-CC-PV(D+D)Z
  Basis Set: (AUG-CC-PV(D+D)Z AUX)
    Blend: AUG-CC-PVDZ-JKFIT
  @DF-RKS Final Energy:  -436.15112170728082
    Total Energy =                       -436.1511217072807653
  Multiplicity = 1
  Basis Set: AUG-CC-PV(D+D)Z
    Blend: AUG-CC-PV(D+D)Z
  Basis Set: (AUG-CC-PV(D+D)Z AUX)
    Blend: AUG-CC-PVDZ-JKFIT
  @DF-RKS Final Energy:  -436.15112084051054
    Total Energy =                       -436.1511208405105435
    Molecular point group: c2v

    Geometry (in Angstrom), charge = 0, multiplicity = 1:

       Center              X                  Y                   Z               Mass
    ------------   -----------------  -----------------  -----------------  -----------------
         C            0.000000000000     0.000000000000    -1.114089192882    12.000000000000
         S            0.000000000000     0.000000000000     0.418148397132    31.972071174400

  Charge       = 0
  Multiplicity = 1
  Basis Set: AUG-CC-PV(D+D)Z
    Blend: AUG-CC-PV(D+D)Z
  Basis Set: (AUG-CC-PV(D+D)Z AUX)
    Blend: AUG-CC-PVDZ-JKFIT

    Orbital Energies [Eh]
    ---------------------

    Doubly Occupied:

       1A1   -88.928002     2A1   -10.390579     3A1    -8.099174
       4A1    -6.050881     1B1    -6.050836     1B2    -6.050836
       5A1    -0.972993     6A1    -0.639530     2B1    -0.459055
       2B2    -0.459055     7A1    -0.422427

  @DF-RKS Final Energy:  -436.15112079699531

   => Energetics <=

    Nuclear Repulsion Energy =             33.1547878445200794
    One-Electron Energy =                -665.8819315583473326
    Two-Electron Energy =                 219.5404838987986125
    DFT Exchange-Correlation Energy =     -23.0565292134214346
    Empirical Dispersion Energy =           0.0000000000000000
    VV10 Nonlocal Energy =                  0.0920682314547805
    Total Energy =                       -436.1511207969952579

  Dipole Moment: [D]
     X:     0.0000      Y:     0.0000      Z:     1.9141     Total:     1.9141

  Vibration                       6
  Freq [cm^-1]                1370.5182
  Irrep                           A1
  Reduced mass [u]             14.4661
  Force const [mDyne/A]        16.0092

  ==> Thermochemistry Components <==

  Entropy, S
    Electronic S            0.000 [cal/(mol K)]        0.000 [J/(mol K)]       0.00000000 [mEh/K] (multiplicity = 1)
    Translational S        37.269 [cal/(mol K)]      155.933 [J/(mol K)]       0.05939180 [mEh/K] (mol. weight = 43.9721 [u], P = 101325.00 [Pa])
    Rotational S           12.976 [cal/(mol K)]       54.292 [J/(mol K)]       0.02067877 [mEh/K] (symmetry no. = 1)
    Vibrational S           0.020 [cal/(mol K)]        0.085 [J/(mol K)]       0.00003239 [mEh/K]
  Total S                  50.265 [cal/(mol K)]      210.310 [J/(mol K)]       0.08010296 [mEh/K]
  Correction S              0.000 [cal/(mol K)]        0.000 [J/(mol K)]       0.00000000 [mEh/K]

  Constant volume heat capacity, Cv
    Electronic Cv           0.000 [cal/(mol K)]        0.000 [J/(mol K)]       0.00000000 [mEh/K]
    Translational Cv        2.981 [cal/(mol K)]       12.472 [J/(mol K)]       0.00475022 [mEh/K]
    Rotational Cv           1.987 [cal/(mol K)]        8.314 [J/(mol K)]       0.00316681 [mEh/K]
    Vibrational Cv          0.117 [cal/(mol K)]        0.489 [J/(mol K)]       0.00018638 [mEh/K]
  Total Cv                  5.085 [cal/(mol K)]       21.275 [J/(mol K)]       0.00810340 [mEh/K]
  Correction Cv             0.000 [cal/(mol K)]        0.000 [J/(mol K)]       0.00000000 [mEh/K]

  Constant pressure heat capacity, Cp
    Electronic Cp           0.000 [cal/(mol K)]        0.000 [J/(mol K)]       0.00000000 [mEh/K]
    Translational Cp        4.968 [cal/(mol K)]       20.786 [J/(mol K)]       0.00791703 [mEh/K]
    Rotational Cp           1.987 [cal/(mol K)]        8.314 [J/(mol K)]       0.00316681 [mEh/K]
    Vibrational Cp          0.117 [cal/(mol K)]        0.489 [J/(mol K)]       0.00018638 [mEh/K]
  Total Cp                  7.072 [cal/(mol K)]       29.590 [J/(mol K)]       0.01127021 [mEh/K]
  Correction Cp             0.000 [cal/(mol K)]        0.000 [J/(mol K)]       0.00000000 [mEh/K]

  ==> Thermochemistry Energy Analysis <==

  Raw electronic energy, E0
  Total E0, Electronic energy at well bottom at 0 [K]                 -436.15112171 [Eh]

  Zero-point energy, ZPE_vib = Sum_i nu_i / 2
    Electronic ZPE          0.000 [kcal/mol]        0.000 [kJ/mol]       0.00000000 [Eh]
    Translational ZPE       0.000 [kcal/mol]        0.000 [kJ/mol]       0.00000000 [Eh]
    Rotational ZPE          0.000 [kcal/mol]        0.000 [kJ/mol]       0.00000000 [Eh]
    Vibrational ZPE         1.959 [kcal/mol]        8.198 [kJ/mol]       0.00312227 [Eh]         685.259 [cm^-1]
  Correction ZPE            1.959 [kcal/mol]        8.198 [kJ/mol]       0.00312227 [Eh]         685.259 [cm^-1]
  Total ZPE, Electronic energy at 0 [K]                               -436.14799944 [Eh]

  Thermal Energy, E (includes ZPE)
    Electronic E            0.000 [kcal/mol]        0.000 [kJ/mol]       0.00000000 [Eh]
    Translational E         0.889 [kcal/mol]        3.718 [kJ/mol]       0.00141628 [Eh]
    Rotational E            0.592 [kcal/mol]        2.479 [kJ/mol]       0.00094418 [Eh]
    Vibrational E           1.965 [kcal/mol]        8.220 [kJ/mol]       0.00313066 [Eh]
  Correction E              3.446 [kcal/mol]       14.417 [kJ/mol]       0.00549112 [Eh]
  Total E, Electronic energy at  298.15 [K]                           -436.14563059 [Eh]

  Enthalpy, H_trans = E_trans + k_B * T
    Electronic H            0.000 [kcal/mol]        0.000 [kJ/mol]       0.00000000 [Eh]
    Translational H         1.481 [kcal/mol]        6.197 [kJ/mol]       0.00236046 [Eh]
    Rotational H            0.592 [kcal/mol]        2.479 [kJ/mol]       0.00094418 [Eh]
    Vibrational H           1.965 [kcal/mol]        8.220 [kJ/mol]       0.00313066 [Eh]
  Correction H              4.038 [kcal/mol]       16.896 [kJ/mol]       0.00643531 [Eh]
  Total H, Enthalpy at  298.15 [K]                                    -436.14468640 [Eh]

  Gibbs free energy, G = H - T * S
    Electronic G            0.000 [kcal/mol]        0.000 [kJ/mol]       0.00000000 [Eh]
    Translational G        -9.631 [kcal/mol]      -40.294 [kJ/mol]      -0.01534720 [Eh]
    Rotational G           -3.276 [kcal/mol]      -13.708 [kJ/mol]      -0.00522119 [Eh]
    Vibrational G           1.958 [kcal/mol]        8.194 [kJ/mol]       0.00312100 [Eh]
  Correction G            -10.948 [kcal/mol]      -45.808 [kJ/mol]      -0.01744739 [Eh]
  Total G, Free enthalpy at  298.15 [K]                               -436.16856910 [Eh]

*** Psi4 exiting successfully. Buy a developer a beer!
