                               Psi4 1.3.2 release

  ==> Input File <==

--------------------------------------------------------------------------
memory 144 GB

molecule {
0 1
F 0.0000000000 0.0000000000 0.0000000000
F 0.0000000000 0.0000000000 1.4129000000
}

set dynamic_level 1
set basis aug-cc-pV(D+d)Z

optimize("wB97X-V")
frequencies("wB97X-V")
--------------------------------------------------------------------------

    Molecular point group: d2h
  Charge       = 0
  Multiplicity = 1
  Basis Set: AUG-CC-PV(D+D)Z
    Blend: AUG-CC-PV(D+D)Z
  Basis Set: (AUG-CC-PV(D+D)Z AUX)
    Blend: AUG-CC-PVDZ-JKFIT
  @DF-RKS Final Energy:  -199.46596984674827
    Total Energy =                       -199.4659698467482372
    Molecular point group: d2h
  Basis Set: AUG-CC-PV(D+D)Z
    Blend: AUG-CC-PV(D+D)Z
  Basis Set: (AUG-CC-PV(D+D)Z AUX)
    Blend: AUG-CC-PVDZ-JKFIT
  @DF-RKS Final Energy:  -199.46593798243563
    Total Energy =                       -199.4659379824356336
  Basis Set: AUG-CC-PV(D+D)Z
    Blend: AUG-CC-PV(D+D)Z
  Basis Set: (AUG-CC-PV(D+D)Z AUX)
    Blend: AUG-CC-PVDZ-JKFIT
  @DF-RKS Final Energy:  -199.46600077228032
    Total Energy =                       -199.4660007722803243
  Basis Set: AUG-CC-PV(D+D)Z
    Blend: AUG-CC-PV(D+D)Z
  Basis Set: (AUG-CC-PV(D+D)Z AUX)
    Blend: AUG-CC-PVDZ-JKFIT
  @DF-RKS Final Energy:  -199.46646014343935
    Total Energy =                       -199.4664601434393774
  @DF-RKS Final Energy:  -199.46645578249314
    Total Energy =                       -199.4664557824931421
  @DF-RKS Final Energy:  -199.46646342269452
    Total Energy =                       -199.4664634226945168
  @DF-RKS Final Energy:  -199.46646680811267
    Total Energy =                       -199.4664668081126706
  @DF-RKS Final Energy:  -199.46646657204579
    Total Energy =                       -199.4664665720457890
  @DF-RKS Final Energy:  -199.46646594050387
    Total Energy =                       -199.4664659405038662
  **** Optimization is complete! (in 3 steps) ****
    Final optimized geometry and variables:
  @DF-RKS Final Energy:  -199.46646680811264
    Total Energy =                       -199.4664668081126422
  @DF-RKS Final Energy:  -199.46646657226813
    Total Energy =                       -199.4664665722681036
  Basis Set: AUG-CC-PV(D+D)Z
    Blend: AUG-CC-PV(D+D)Z
  Basis Set: (AUG-CC-PV(D+D)Z AUX)
    Blend: AUG-CC-PVDZ-JKFIT
  @DF-RKS Final Energy:  -199.46646594070569
    Total Energy =                       -199.4664659407056888
  Basis Set: AUG-CC-PV(D+D)Z
    Blend: AUG-CC-PV(D+D)Z
  Basis Set: (AUG-CC-PV(D+D)Z AUX)
    Blend: AUG-CC-PVDZ-JKFIT
  @DF-RKS Final Energy:  -199.46646680811259
    Total Energy =                       -199.4664668081125853
  Multiplicity = 1
  Basis Set: AUG-CC-PV(D+D)Z
    Blend: AUG-CC-PV(D+D)Z
  Basis Set: (AUG-CC-PV(D+D)Z AUX)
    Blend: AUG-CC-PVDZ-JKFIT
  @DF-RKS Final Energy:  -199.46646657226802
    Total Energy =                       -199.4664665722680184
    Molecular point group: d2h

    Geometry (in Angstrom), charge = 0, multiplicity = 1:

       Center              X                  Y                   Z               Mass
    ------------   -----------------  -----------------  -----------------  -----------------
         F            0.000000000000     0.000000000000    -0.692660115937    18.998403162730
         F            0.000000000000     0.000000000000     0.692660115937    18.998403162730

  Charge       = 0
  Multiplicity = 1
  Basis Set: AUG-CC-PV(D+D)Z
    Blend: AUG-CC-PV(D+D)Z
  Basis Set: (AUG-CC-PV(D+D)Z AUX)
    Blend: AUG-CC-PVDZ-JKFIT

    Orbital Energies [Eh]
    ---------------------

    Doubly Occupied:

       1B1u  -24.899854     1Ag   -24.899796     2Ag    -1.503917
       2B1u   -1.241756     3Ag    -0.723933     1B3u   -0.668267
       1B2u   -0.668267     1B2g   -0.526644     1B3g   -0.526644

  @DF-RKS Final Energy:  -199.46646594070560

   => Energetics <=

    Nuclear Repulsion Energy =             30.9411160524653646
    One-Electron Energy =                -339.3704346633246018
    Two-Electron Energy =                 123.8831761708240720
    DFT Exchange-Correlation Energy =     -14.9973303889227907
    Empirical Dispersion Energy =           0.0000000000000000
    VV10 Nonlocal Energy =                  0.0770068882523604
    Total Energy =                       -199.4664659407056035

  Dipole Moment: [D]
     X:     0.0000      Y:     0.0000      Z:    -0.0000     Total:     0.0000

  Vibration                       6
  Freq [cm^-1]                1079.8702
  Irrep                           Ag
  Reduced mass [u]             18.9984
  Force const [mDyne/A]        13.0530

  ==> Thermochemistry Components <==

  Entropy, S
    Electronic S            0.000 [cal/(mol K)]        0.000 [J/(mol K)]       0.00000000 [mEh/K] (multiplicity = 1)
    Translational S        36.834 [cal/(mol K)]      154.112 [J/(mol K)]       0.05869802 [mEh/K] (mol. weight = 37.9968 [u], P = 101325.00 [Pa])
    Rotational S           11.367 [cal/(mol K)]       47.560 [J/(mol K)]       0.01811467 [mEh/K] (symmetry no. = 2)
    Vibrational S           0.068 [cal/(mol K)]        0.283 [J/(mol K)]       0.00010785 [mEh/K]
  Total S                  48.268 [cal/(mol K)]      201.955 [J/(mol K)]       0.07692053 [mEh/K]
  Correction S              0.000 [cal/(mol K)]        0.000 [J/(mol K)]       0.00000000 [mEh/K]

  Constant volume heat capacity, Cv
    Electronic Cv           0.000 [cal/(mol K)]        0.000 [J/(mol K)]       0.00000000 [mEh/K]
    Translational Cv        2.981 [cal/(mol K)]       12.472 [J/(mol K)]       0.00475022 [mEh/K]
    Rotational Cv           1.987 [cal/(mol K)]        8.314 [J/(mol K)]       0.00316681 [mEh/K]
    Vibrational Cv          0.298 [cal/(mol K)]        1.245 [J/(mol K)]       0.00047433 [mEh/K]
  Total Cv                  5.266 [cal/(mol K)]       22.031 [J/(mol K)]       0.00839135 [mEh/K]
  Correction Cv             0.000 [cal/(mol K)]        0.000 [J/(mol K)]       0.00000000 [mEh/K]

  Constant pressure heat capacity, Cp
    Electronic Cp           0.000 [cal/(mol K)]        0.000 [J/(mol K)]       0.00000000 [mEh/K]
    Translational Cp        4.968 [cal/(mol K)]       20.786 [J/(mol K)]       0.00791703 [mEh/K]
    Rotational Cp           1.987 [cal/(mol K)]        8.314 [J/(mol K)]       0.00316681 [mEh/K]
    Vibrational Cp          0.298 [cal/(mol K)]        1.245 [J/(mol K)]       0.00047433 [mEh/K]
  Total Cp                  7.253 [cal/(mol K)]       30.346 [J/(mol K)]       0.01155816 [mEh/K]
  Correction Cp             0.000 [cal/(mol K)]        0.000 [J/(mol K)]       0.00000000 [mEh/K]

  ==> Thermochemistry Energy Analysis <==

  Raw electronic energy, E0
  Total E0, Electronic energy at well bottom at 0 [K]                 -199.46646681 [Eh]

  Zero-point energy, ZPE_vib = Sum_i nu_i / 2
    Electronic ZPE          0.000 [kcal/mol]        0.000 [kJ/mol]       0.00000000 [Eh]
    Translational ZPE       0.000 [kcal/mol]        0.000 [kJ/mol]       0.00000000 [Eh]
    Rotational ZPE          0.000 [kcal/mol]        0.000 [kJ/mol]       0.00000000 [Eh]
    Vibrational ZPE         1.544 [kcal/mol]        6.459 [kJ/mol]       0.00246013 [Eh]         539.935 [cm^-1]
  Correction ZPE            1.544 [kcal/mol]        6.459 [kJ/mol]       0.00246013 [Eh]         539.935 [cm^-1]
  Total ZPE, Electronic energy at 0 [K]                               -199.46400668 [Eh]

  Thermal Energy, E (includes ZPE)
    Electronic E            0.000 [kcal/mol]        0.000 [kJ/mol]       0.00000000 [Eh]
    Translational E         0.889 [kcal/mol]        3.718 [kJ/mol]       0.00141628 [Eh]
    Rotational E            0.592 [kcal/mol]        2.479 [kJ/mol]       0.00094418 [Eh]
    Vibrational E           1.561 [kcal/mol]        6.530 [kJ/mol]       0.00248712 [Eh]
  Correction E              3.042 [kcal/mol]       12.727 [kJ/mol]       0.00484758 [Eh]
  Total E, Electronic energy at  298.15 [K]                           -199.46161923 [Eh]

  Enthalpy, H_trans = E_trans + k_B * T
    Electronic H            0.000 [kcal/mol]        0.000 [kJ/mol]       0.00000000 [Eh]
    Translational H         1.481 [kcal/mol]        6.197 [kJ/mol]       0.00236046 [Eh]
    Rotational H            0.592 [kcal/mol]        2.479 [kJ/mol]       0.00094418 [Eh]
    Vibrational H           1.561 [kcal/mol]        6.530 [kJ/mol]       0.00248712 [Eh]
  Correction H              3.634 [kcal/mol]       15.206 [kJ/mol]       0.00579176 [Eh]
  Total H, Enthalpy at  298.15 [K]                                    -199.46067505 [Eh]

  Gibbs free energy, G = H - T * S
    Electronic G            0.000 [kcal/mol]        0.000 [kJ/mol]       0.00000000 [Eh]
    Translational G        -9.501 [kcal/mol]      -39.751 [kJ/mol]      -0.01514035 [Eh]
    Rotational G           -2.797 [kcal/mol]      -11.701 [kJ/mol]      -0.00445670 [Eh]
    Vibrational G           1.541 [kcal/mol]        6.445 [kJ/mol]       0.00245496 [Eh]
  Correction G            -10.757 [kcal/mol]      -45.007 [kJ/mol]      -0.01714210 [Eh]
  Total G, Free enthalpy at  298.15 [K]                               -199.48360890 [Eh]

*** Psi4 exiting successfully. Buy a developer a beer!
