                               Psi4 1.3.2 release

  ==> Input File <==

--------------------------------------------------------------------------
memory 144 GB

molecule {
0 1
O 0.0000000000 0.0000000000 0.0000000000
C 0.0000000000 0.0000000000 1.2066000000
H 0.9369544103 0.0000000000 1.7870836544
H -0.9369544103 0.0000000000 1.7870836544
}

set dynamic_level 1
set basis aug-cc-pV(D+d)Z

optimize("wB97X-V")
frequencies("wB97X-V")
--------------------------------------------------------------------------

    Molecular point group: c2v
  Charge       = 0
  Multiplicity = 1
  Basis Set: AUG-CC-PV(D+D)Z
    Blend: AUG-CC-PV(D+D)Z
  Basis Set: (AUG-CC-PV(D+D)Z AUX)
    Blend: AUG-CC-PVDZ-JKFIT
  @DF-RKS Final Energy:  -114.47930420978787
    Total Energy =                       -114.4793042097878697
    Molecular point group: c2v
  Basis Set: AUG-CC-PV(D+D)Z
    Blend: AUG-CC-PV(D+D)Z
  Basis Set: (AUG-CC-PV(D+D)Z AUX)
    Blend: AUG-CC-PVDZ-JKFIT
  @DF-RKS Final Energy:  -114.47930624396253
    Total Energy =                       -114.4793062439625118
  Basis Set: AUG-CC-PV(D+D)Z
    Blend: AUG-CC-PV(D+D)Z
  Basis Set: (AUG-CC-PV(D+D)Z AUX)
    Blend: AUG-CC-PVDZ-JKFIT
  @DF-RKS Final Energy:  -114.47929914373772
    Total Energy =                       -114.4792991437377339
  Basis Set: AUG-CC-PV(D+D)Z
    Blend: AUG-CC-PV(D+D)Z
  Basis Set: (AUG-CC-PV(D+D)Z AUX)
    Blend: AUG-CC-PVDZ-JKFIT
  @DF-RKS Final Energy:  -114.47932508387424
    Total Energy =                       -114.4793250838742438
  @DF-RKS Final Energy:  -114.47927921975207
    Total Energy =                       -114.4792792197520725
  @DF-RKS Final Energy:  -114.47925683971351
    Total Energy =                       -114.4792568397135000
  @DF-RKS Final Energy:  -114.47934461142252
    Total Energy =                       -114.4793446114225048
  @DF-RKS Final Energy:  -114.47945024708942
    Total Energy =                       -114.4794502470894173
  @DF-RKS Final Energy:  -114.47944708194288
    Total Energy =                       -114.4794470819428795
  @DF-RKS Final Energy:  -114.47945040797961
    Total Energy =                       -114.4794504079796127
  @DF-RKS Final Energy:  -114.47944901998962
    Total Energy =                       -114.4794490199896160
  @DF-RKS Final Energy:  -114.47944750214108
    Total Energy =                       -114.4794475021410847
  @DF-RKS Final Energy:  -114.47944743775392
    Total Energy =                       -114.4794474377539188
  @DF-RKS Final Energy:  -114.47944646521516
    Total Energy =                       -114.4794464652151618
  @DF-RKS Final Energy:  -114.47945077443225
    Total Energy =                       -114.4794507744322374
  @DF-RKS Final Energy:  -114.47944899954823
    Total Energy =                       -114.4794489995482536
  @DF-RKS Final Energy:  -114.47944953840607
    Total Energy =                       -114.4794495384060582
  @DF-RKS Final Energy:  -114.47944918567049
    Total Energy =                       -114.4794491856704752
  @DF-RKS Final Energy:  -114.47944838889147
    Total Energy =                       -114.4794483888914698
  @DF-RKS Final Energy:  -114.47944752641089
    Total Energy =                       -114.4794475264108939
  **** Optimization is complete! (in 3 steps) ****
    Final optimized geometry and variables:
  @DF-RKS Final Energy:  -114.47944752641095
    Total Energy =                       -114.4794475264109508
  @DF-RKS Final Energy:  -114.47944743290768
    Total Energy =                       -114.4794474329076763
  @DF-RKS Final Energy:  -114.47945077443215
    Total Energy =                       -114.4794507744321663
  @DF-RKS Final Energy:  -114.47944899954827
    Total Energy =                       -114.4794489995482678
  @DF-RKS Final Energy:  -114.47944953840629
    Total Energy =                       -114.4794495384062856
  @DF-RKS Final Energy:  -114.47944918567060
    Total Energy =                       -114.4794491856706173
  @DF-RKS Final Energy:  -114.47944838889141
    Total Energy =                       -114.4794483888914129
  @DF-RKS Final Energy:  -114.47944752641077
    Total Energy =                       -114.4794475264107660
  @DF-RKS Final Energy:  -114.47944743290772
    Total Energy =                       -114.4794474329077190
  @DF-RKS Final Energy:  -114.47944748392607
    Total Energy =                       -114.4794474839260658
  @DF-RKS Final Energy:  -114.47944773870765
    Total Energy =                       -114.4794477387076483
  @DF-RKS Final Energy:  -114.47944639053554
    Total Energy =                       -114.4794463905355428
  @DF-RKS Final Energy:  -114.47944594456317
    Total Energy =                       -114.4794459445631674
  @DF-RKS Final Energy:  -114.47944765516478
    Total Energy =                       -114.4794476551647762
  @DF-RKS Final Energy:  -114.47944855884639
    Total Energy =                       -114.4794485588463857
  @DF-RKS Final Energy:  -114.47945003257404
    Total Energy =                       -114.4794500325740216
  Basis Set: AUG-CC-PV(D+D)Z
    Blend: AUG-CC-PV(D+D)Z
  Basis Set: (AUG-CC-PV(D+D)Z AUX)
    Blend: AUG-CC-PVDZ-JKFIT
  @DF-RKS Final Energy:  -114.47944645760573
    Total Energy =                       -114.4794464576057464
  Basis Set: AUG-CC-PV(D+D)Z
    Blend: AUG-CC-PV(D+D)Z
  Basis Set: (AUG-CC-PV(D+D)Z AUX)
    Blend: AUG-CC-PVDZ-JKFIT
  @DF-RKS Final Energy:  -114.47944575222598
    Total Energy =                       -114.4794457522259847
  Multiplicity = 1
  Basis Set: AUG-CC-PV(D+D)Z
    Blend: AUG-CC-PV(D+D)Z
  Basis Set: (AUG-CC-PV(D+D)Z AUX)
    Blend: AUG-CC-PVDZ-JKFIT
  @DF-RKS Final Energy:  -114.47944575324311
    Total Energy =                       -114.4794457532431124
    Molecular point group: cs

    Geometry (in Angstrom), charge = 0, multiplicity = 1:

       Center              X                  Y                   Z               Mass
    ------------   -----------------  -----------------  -----------------  -----------------
         O            0.000000000000    -0.000096056737    -0.602993764958    15.994914619570
         C            0.000000000000     0.000392664054     0.604152585744    12.000000000000
         H            0.947640007033    -0.001575446747     1.188203647021     1.007825032230
         H           -0.947640007033    -0.001575446747     1.188203647021     1.007825032230

  Charge       = 0
  Multiplicity = 1
  Basis Set: AUG-CC-PV(D+D)Z
    Blend: AUG-CC-PV(D+D)Z
  Basis Set: (AUG-CC-PV(D+D)Z AUX)
    Blend: AUG-CC-PVDZ-JKFIT

    Orbital Energies [Eh]
    ---------------------

    Doubly Occupied:

       1Ap   -19.256695     2Ap   -10.390287     3Ap    -1.199483
       4Ap    -0.762563     1App   -0.615344     5Ap    -0.569207
       6Ap    -0.513973     2App   -0.379203

  @DF-RKS Final Energy:  -114.47945008598906

   => Energetics <=

    Nuclear Repulsion Energy =             31.2037487625158434
    One-Electron Energy =                -217.1460108679282826
    Two-Electron Energy =                  81.6584746962735153
    DFT Exchange-Correlation Energy =     -10.2621834228678015
    Empirical Dispersion Energy =           0.0000000000000000
    VV10 Nonlocal Energy =                  0.0665207460176753
    Total Energy =                       -114.4794500859890718

  Dipole Moment: [D]
     X:     0.0000      Y:    -0.0011      Z:     2.4804     Total:     2.4804

  Vibration                       7                   8                   9
  Freq [cm^-1]                1206.3777           1252.2230           1518.8587
  Irrep                           B2                  B1                  A1
  Reduced mass [u]              1.3653              1.3428              1.0917
  Force const [mDyne/A]         1.1707              1.2406              1.4838

  Vibration                       10                  11                  12
  Freq [cm^-1]                1835.3757           2944.9568           3020.9002
  Irrep                           A1                  A1                  B1
  Reduced mass [u]              7.9785              1.0464              1.1208
  Force const [mDyne/A]        15.8351              5.3468              6.0263

  ==> Thermochemistry Components <==

  Entropy, S
    Electronic S            0.000 [cal/(mol K)]        0.000 [J/(mol K)]       0.00000000 [mEh/K] (multiplicity = 1)
    Translational S        36.130 [cal/(mol K)]      151.169 [J/(mol K)]       0.05757719 [mEh/K] (mol. weight = 30.0106 [u], P = 101325.00 [Pa])
    Rotational S           16.042 [cal/(mol K)]       67.119 [J/(mol K)]       0.02556418 [mEh/K] (symmetry no. = 2)
    Vibrational S           0.087 [cal/(mol K)]        0.365 [J/(mol K)]       0.00013908 [mEh/K]
  Total S                  52.259 [cal/(mol K)]      218.653 [J/(mol K)]       0.08328045 [mEh/K]
  Correction S              0.000 [cal/(mol K)]        0.000 [J/(mol K)]       0.00000000 [mEh/K]

  Constant volume heat capacity, Cv
    Electronic Cv           0.000 [cal/(mol K)]        0.000 [J/(mol K)]       0.00000000 [mEh/K]
    Translational Cv        2.981 [cal/(mol K)]       12.472 [J/(mol K)]       0.00475022 [mEh/K]
    Rotational Cv           2.981 [cal/(mol K)]       12.472 [J/(mol K)]       0.00475022 [mEh/K]
    Vibrational Cv          0.467 [cal/(mol K)]        1.953 [J/(mol K)]       0.00074367 [mEh/K]
  Total Cv                  6.428 [cal/(mol K)]       26.896 [J/(mol K)]       0.01024411 [mEh/K]
  Correction Cv             0.000 [cal/(mol K)]        0.000 [J/(mol K)]       0.00000000 [mEh/K]

  Constant pressure heat capacity, Cp
    Electronic Cp           0.000 [cal/(mol K)]        0.000 [J/(mol K)]       0.00000000 [mEh/K]
    Translational Cp        4.968 [cal/(mol K)]       20.786 [J/(mol K)]       0.00791703 [mEh/K]
    Rotational Cp           2.981 [cal/(mol K)]       12.472 [J/(mol K)]       0.00475022 [mEh/K]
    Vibrational Cp          0.467 [cal/(mol K)]        1.953 [J/(mol K)]       0.00074367 [mEh/K]
  Total Cp                  8.415 [cal/(mol K)]       35.210 [J/(mol K)]       0.01341092 [mEh/K]
  Correction Cp             0.000 [cal/(mol K)]        0.000 [J/(mol K)]       0.00000000 [mEh/K]

  ==> Thermochemistry Energy Analysis <==

  Raw electronic energy, E0
  Total E0, Electronic energy at well bottom at 0 [K]                 -114.47945077 [Eh]

  Zero-point energy, ZPE_vib = Sum_i nu_i / 2
    Electronic ZPE          0.000 [kcal/mol]        0.000 [kJ/mol]       0.00000000 [Eh]
    Translational ZPE       0.000 [kcal/mol]        0.000 [kJ/mol]       0.00000000 [Eh]
    Rotational ZPE          0.000 [kcal/mol]        0.000 [kJ/mol]       0.00000000 [Eh]
    Vibrational ZPE        16.838 [kcal/mol]       70.452 [kJ/mol]       0.02683383 [Eh]        5889.346 [cm^-1]
  Correction ZPE           16.838 [kcal/mol]       70.452 [kJ/mol]       0.02683383 [Eh]        5889.346 [cm^-1]
  Total ZPE, Electronic energy at 0 [K]                               -114.45261694 [Eh]

  Thermal Energy, E (includes ZPE)
    Electronic E            0.000 [kcal/mol]        0.000 [kJ/mol]       0.00000000 [Eh]
    Translational E         0.889 [kcal/mol]        3.718 [kJ/mol]       0.00141628 [Eh]
    Rotational E            0.889 [kcal/mol]        3.718 [kJ/mol]       0.00141628 [Eh]
    Vibrational E          16.861 [kcal/mol]       70.546 [kJ/mol]       0.02686950 [Eh]
  Correction E             18.638 [kcal/mol]       77.983 [kJ/mol]       0.02970205 [Eh]
  Total E, Electronic energy at  298.15 [K]                           -114.44974872 [Eh]

  Enthalpy, H_trans = E_trans + k_B * T
    Electronic H            0.000 [kcal/mol]        0.000 [kJ/mol]       0.00000000 [Eh]
    Translational H         1.481 [kcal/mol]        6.197 [kJ/mol]       0.00236046 [Eh]
    Rotational H            0.889 [kcal/mol]        3.718 [kJ/mol]       0.00141628 [Eh]
    Vibrational H          16.861 [kcal/mol]       70.546 [kJ/mol]       0.02686950 [Eh]
  Correction H             19.231 [kcal/mol]       80.462 [kJ/mol]       0.03064624 [Eh]
  Total H, Enthalpy at  298.15 [K]                                    -114.44880454 [Eh]

  Gibbs free energy, G = H - T * S
    Electronic G            0.000 [kcal/mol]        0.000 [kJ/mol]       0.00000000 [Eh]
    Translational G        -9.291 [kcal/mol]      -38.874 [kJ/mol]      -0.01480618 [Eh]
    Rotational G           -3.894 [kcal/mol]      -16.293 [kJ/mol]      -0.00620568 [Eh]
    Vibrational G          16.835 [kcal/mol]       70.437 [kJ/mol]       0.02682803 [Eh]
  Correction G              3.650 [kcal/mol]       15.270 [kJ/mol]       0.00581617 [Eh]
  Total G, Free enthalpy at  298.15 [K]                               -114.47363460 [Eh]

*** Psi4 exiting successfully. Buy a developer a beer!
