                               Psi4 1.3.2 release

  ==> Input File <==

--------------------------------------------------------------------------
memory 144 GB

molecule {
0 1
S 0.0000000000 0.0000000000 0.0000000000
C 0.0000000000 0.0000000000 1.2066000000
H 0.9369544103 0.0000000000 1.7870836544
H -0.9369544103 0.0000000000 1.7870836544
}

set dynamic_level 1
set basis aug-cc-pV(D+d)Z

optimize("wB97X-V")
frequencies("wB97X-V")
--------------------------------------------------------------------------

    Molecular point group: c2v
  Charge       = 0
  Multiplicity = 1
  Basis Set: AUG-CC-PV(D+D)Z
    Blend: AUG-CC-PV(D+D)Z
  Basis Set: (AUG-CC-PV(D+D)Z AUX)
    Blend: AUG-CC-PVDZ-JKFIT
  @DF-RKS Final Energy:  -437.10616741947985
    Total Energy =                       -437.1061674194797888
    Molecular point group: c2v
  Basis Set: AUG-CC-PV(D+D)Z
    Blend: AUG-CC-PV(D+D)Z
  Basis Set: (AUG-CC-PV(D+D)Z AUX)
    Blend: AUG-CC-PVDZ-JKFIT
  @DF-RKS Final Energy:  -437.10790825712957
    Total Energy =                       -437.1079082571295089
  Basis Set: AUG-CC-PV(D+D)Z
    Blend: AUG-CC-PV(D+D)Z
  Basis Set: (AUG-CC-PV(D+D)Z AUX)
    Blend: AUG-CC-PVDZ-JKFIT
  @DF-RKS Final Energy:  -437.10441853166236
    Total Energy =                       -437.1044185316623043
  Basis Set: AUG-CC-PV(D+D)Z
    Blend: AUG-CC-PV(D+D)Z
  Basis Set: (AUG-CC-PV(D+D)Z AUX)
    Blend: AUG-CC-PVDZ-JKFIT
  @DF-RKS Final Energy:  -437.10574862318765
    Total Energy =                       -437.1057486231877078
  @DF-RKS Final Energy:  -437.10658131417165
    Total Energy =                       -437.1065813141717058
  @DF-RKS Final Energy:  -437.10618400917144
    Total Energy =                       -437.1061840091714998
  @DF-RKS Final Energy:  -437.10614442433916
    Total Energy =                       -437.1061444243392202
  @DF-RKS Final Energy:  -437.30144088183988
    Total Energy =                       -437.3014408818399374
  @DF-RKS Final Energy:  -437.30221287862025
    Total Energy =                       -437.3022128786203098
  @DF-RKS Final Energy:  -437.30066452690306
    Total Energy =                       -437.3006645269030059
  @DF-RKS Final Energy:  -437.30121369916242
    Total Energy =                       -437.3012136991623606
  @DF-RKS Final Energy:  -437.30166356543469
    Total Energy =                       -437.3016635654346942
  @DF-RKS Final Energy:  -437.30146576750701
    Total Energy =                       -437.3014657675070112
  @DF-RKS Final Energy:  -437.30140965140703
    Total Energy =                       -437.3014096514070843
  @DF-RKS Final Energy:  -437.36853801834764
    Total Energy =                       -437.3685380183475786
  @DF-RKS Final Energy:  -437.36888456731418
    Total Energy =                       -437.3688845673142396
  @DF-RKS Final Energy:  -437.36818878286334
    Total Energy =                       -437.3681887828633421
  @DF-RKS Final Energy:  -437.36841823453318
    Total Energy =                       -437.3684182345332374
  @DF-RKS Final Energy:  -437.36865343930270
    Total Energy =                       -437.3686534393026477
  @DF-RKS Final Energy:  -437.36854098729123
    Total Energy =                       -437.3685409872912828
  **** Optimization is complete! (in 9 steps) ****
    Final optimized geometry and variables:
  @DF-RKS Final Energy:  -437.39693736524993
    Total Energy =                       -437.3969373652499257
  @DF-RKS Final Energy:  -437.39693735355820
    Total Energy =                       -437.3969373535582577
  @DF-RKS Final Energy:  -437.39694092807281
    Total Energy =                       -437.3969409280728087
  @DF-RKS Final Energy:  -437.39694032689926
    Total Energy =                       -437.3969403268991982
  @DF-RKS Final Energy:  -437.39694027594902
    Total Energy =                       -437.3969402759490208
  @DF-RKS Final Energy:  -437.39693891369427
    Total Energy =                       -437.3969389136942141
  @DF-RKS Final Energy:  -437.39693886522844
    Total Energy =                       -437.3969388652283783
  @DF-RKS Final Energy:  -437.39693736524936
    Total Energy =                       -437.3969373652494710
  @DF-RKS Final Energy:  -437.39693735355803
    Total Energy =                       -437.3969373535580871
  @DF-RKS Final Energy:  -437.39693839347171
    Total Energy =                       -437.3969383934717143
  @DF-RKS Final Energy:  -437.39693849277489
    Total Energy =                       -437.3969384927748933
  @DF-RKS Final Energy:  -437.39693667063443
    Total Energy =                       -437.3969366706343749
  @DF-RKS Final Energy:  -437.39693673371107
    Total Energy =                       -437.3969367337110157
  @DF-RKS Final Energy:  -437.39693843831685
    Total Energy =                       -437.3969384383168517
  @DF-RKS Final Energy:  -437.39693851725212
    Total Energy =                       -437.3969385172521811
  @DF-RKS Final Energy:  -437.39694044341434
    Total Energy =                       -437.3969404434143939
  Basis Set: AUG-CC-PV(D+D)Z
    Blend: AUG-CC-PV(D+D)Z
  Basis Set: (AUG-CC-PV(D+D)Z AUX)
    Blend: AUG-CC-PVDZ-JKFIT
  @DF-RKS Final Energy:  -437.39693608135451
    Total Energy =                       -437.3969360813545109
  Basis Set: AUG-CC-PV(D+D)Z
    Blend: AUG-CC-PV(D+D)Z
  Basis Set: (AUG-CC-PV(D+D)Z AUX)
    Blend: AUG-CC-PVDZ-JKFIT
  @DF-RKS Final Energy:  -437.39693564023463
    Total Energy =                       -437.3969356402346307
  Multiplicity = 1
  Basis Set: AUG-CC-PV(D+D)Z
    Blend: AUG-CC-PV(D+D)Z
  Basis Set: (AUG-CC-PV(D+D)Z AUX)
    Blend: AUG-CC-PVDZ-JKFIT
  @DF-RKS Final Energy:  -437.39693564046883
    Total Energy =                       -437.3969356404687687
    Molecular point group: cs

    Geometry (in Angstrom), charge = 0, multiplicity = 1:

       Center              X                  Y                   Z               Mass
    ------------   -----------------  -----------------  -----------------  -----------------
         S            0.000000000000    -0.000036956219    -0.514561992895    31.972071174400
         C            0.000000000000     0.000370979320     1.090405341614    12.000000000000
         H            0.932069207517    -0.001622397181     1.670304097163     1.007825032230
         H           -0.932069207517    -0.001622397181     1.670304097163     1.007825032230

  Charge       = 0
  Multiplicity = 1
  Basis Set: AUG-CC-PV(D+D)Z
    Blend: AUG-CC-PV(D+D)Z
  Basis Set: (AUG-CC-PV(D+D)Z AUX)
    Blend: AUG-CC-PVDZ-JKFIT

    Orbital Energies [Eh]
    ---------------------

    Doubly Occupied:

       1Ap   -88.881384     2Ap   -10.362768     3Ap    -8.048052
       4Ap    -6.004347     5Ap    -6.002410     1App   -5.993370
       6Ap    -0.937206     7Ap    -0.724739     2App   -0.579795
       8Ap    -0.504536     9Ap    -0.423934     3App   -0.334231

  @DF-RKS Final Energy:  -437.39694039552512

   => Energetics <=

    Nuclear Repulsion Energy =             44.8497962826092191
    One-Electron Energy =                -690.9720933211681313
    Two-Electron Energy =                 232.1291706221883828
    DFT Exchange-Correlation Energy =     -23.5030924433521129
    Empirical Dispersion Energy =           0.0000000000000000
    VV10 Nonlocal Energy =                  0.0992784641975527
    Total Energy =                       -437.3969403955251209

  Dipole Moment: [D]
     X:     0.0000      Y:    -0.0027      Z:     1.8432     Total:     1.8432

  Vibration                       7                   8                   9
  Freq [cm^-1]                1012.0879           1061.0321           1140.1987
  Irrep                           B1                  B2                  A1
  Reduced mass [u]              1.2079              1.2956              4.0093
  Force const [mDyne/A]         0.7290              0.8594              3.0710

  Vibration                       10                  11                  12
  Freq [cm^-1]                1497.1094           3104.3423           3200.9438
  Irrep                           A1                  A1                  B1
  Reduced mass [u]              1.2317              1.0518              1.1200
  Force const [mDyne/A]         1.6265              5.9718              6.7611

  ==> Thermochemistry Components <==

  Entropy, S
    Electronic S            0.000 [cal/(mol K)]        0.000 [J/(mol K)]       0.00000000 [mEh/K] (multiplicity = 1)
    Translational S        37.403 [cal/(mol K)]      156.492 [J/(mol K)]       0.05960470 [mEh/K] (mol. weight = 45.9877 [u], P = 101325.00 [Pa])
    Rotational S           17.483 [cal/(mol K)]       73.148 [J/(mol K)]       0.02786053 [mEh/K] (symmetry no. = 2)
    Vibrational S           0.227 [cal/(mol K)]        0.950 [J/(mol K)]       0.00036171 [mEh/K]
  Total S                  55.112 [cal/(mol K)]      230.590 [J/(mol K)]       0.08782694 [mEh/K]
  Correction S              0.000 [cal/(mol K)]        0.000 [J/(mol K)]       0.00000000 [mEh/K]

  Constant volume heat capacity, Cv
    Electronic Cv           0.000 [cal/(mol K)]        0.000 [J/(mol K)]       0.00000000 [mEh/K]
    Translational Cv        2.981 [cal/(mol K)]       12.472 [J/(mol K)]       0.00475022 [mEh/K]
    Rotational Cv           2.981 [cal/(mol K)]       12.472 [J/(mol K)]       0.00475022 [mEh/K]
    Vibrational Cv          1.002 [cal/(mol K)]        4.194 [J/(mol K)]       0.00159745 [mEh/K]
  Total Cv                  6.964 [cal/(mol K)]       29.137 [J/(mol K)]       0.01109788 [mEh/K]
  Correction Cv             0.000 [cal/(mol K)]        0.000 [J/(mol K)]       0.00000000 [mEh/K]

  Constant pressure heat capacity, Cp
    Electronic Cp           0.000 [cal/(mol K)]        0.000 [J/(mol K)]       0.00000000 [mEh/K]
    Translational Cp        4.968 [cal/(mol K)]       20.786 [J/(mol K)]       0.00791703 [mEh/K]
    Rotational Cp           2.981 [cal/(mol K)]       12.472 [J/(mol K)]       0.00475022 [mEh/K]
    Vibrational Cp          1.002 [cal/(mol K)]        4.194 [J/(mol K)]       0.00159745 [mEh/K]
  Total Cp                  8.951 [cal/(mol K)]       37.452 [J/(mol K)]       0.01426469 [mEh/K]
  Correction Cp             0.000 [cal/(mol K)]        0.000 [J/(mol K)]       0.00000000 [mEh/K]

  ==> Thermochemistry Energy Analysis <==

  Raw electronic energy, E0
  Total E0, Electronic energy at well bottom at 0 [K]                 -437.39694093 [Eh]

  Zero-point energy, ZPE_vib = Sum_i nu_i / 2
    Electronic ZPE          0.000 [kcal/mol]        0.000 [kJ/mol]       0.00000000 [Eh]
    Translational ZPE       0.000 [kcal/mol]        0.000 [kJ/mol]       0.00000000 [Eh]
    Rotational ZPE          0.000 [kcal/mol]        0.000 [kJ/mol]       0.00000000 [Eh]
    Vibrational ZPE        15.748 [kcal/mol]       65.889 [kJ/mol]       0.02509564 [Eh]        5507.857 [cm^-1]
  Correction ZPE           15.748 [kcal/mol]       65.889 [kJ/mol]       0.02509564 [Eh]        5507.857 [cm^-1]
  Total ZPE, Electronic energy at 0 [K]                               -437.37184528 [Eh]

  Thermal Energy, E (includes ZPE)
    Electronic E            0.000 [kcal/mol]        0.000 [kJ/mol]       0.00000000 [Eh]
    Translational E         0.889 [kcal/mol]        3.718 [kJ/mol]       0.00141628 [Eh]
    Rotational E            0.889 [kcal/mol]        3.718 [kJ/mol]       0.00141628 [Eh]
    Vibrational E          15.805 [kcal/mol]       66.126 [kJ/mol]       0.02518611 [Eh]
  Correction E             17.582 [kcal/mol]       73.563 [kJ/mol]       0.02801866 [Eh]
  Total E, Electronic energy at  298.15 [K]                           -437.36892226 [Eh]

  Enthalpy, H_trans = E_trans + k_B * T
    Electronic H            0.000 [kcal/mol]        0.000 [kJ/mol]       0.00000000 [Eh]
    Translational H         1.481 [kcal/mol]        6.197 [kJ/mol]       0.00236046 [Eh]
    Rotational H            0.889 [kcal/mol]        3.718 [kJ/mol]       0.00141628 [Eh]
    Vibrational H          15.805 [kcal/mol]       66.126 [kJ/mol]       0.02518611 [Eh]
  Correction H             18.174 [kcal/mol]       76.042 [kJ/mol]       0.02896285 [Eh]
  Total H, Enthalpy at  298.15 [K]                                    -437.36797808 [Eh]

  Gibbs free energy, G = H - T * S
    Electronic G            0.000 [kcal/mol]        0.000 [kJ/mol]       0.00000000 [Eh]
    Translational G        -9.670 [kcal/mol]      -40.461 [kJ/mol]      -0.01541068 [Eh]
    Rotational G           -4.324 [kcal/mol]      -18.091 [kJ/mol]      -0.00689034 [Eh]
    Vibrational G          15.737 [kcal/mol]       65.843 [kJ/mol]       0.02507827 [Eh]
  Correction G              1.743 [kcal/mol]        7.292 [kJ/mol]       0.00277725 [Eh]
  Total G, Free enthalpy at  298.15 [K]                               -437.39416368 [Eh]

*** Psi4 exiting successfully. Buy a developer a beer!
