                               Psi4 1.3.2 release

  ==> Input File <==

--------------------------------------------------------------------------
memory 144 GB

molecule {
0 1
O 0.0000000000 0.0000000000 0.0000000000
H 0.0000000000 0.0000000000 0.9579000000
H 0.9289588892 0.0000000000 -0.2336831018
}

set dynamic_level 1
set basis aug-cc-pV(D+d)Z

optimize("wB97X-V")
frequencies("wB97X-V")
--------------------------------------------------------------------------

    Molecular point group: c2v
  Charge       = 0
  Multiplicity = 1
  Basis Set: AUG-CC-PV(D+D)Z
    Blend: AUG-CC-PV(D+D)Z
  Basis Set: (AUG-CC-PV(D+D)Z AUX)
    Blend: AUG-CC-PVDZ-JKFIT
  @DF-RKS Final Energy:   -76.41366317488477
    Total Energy =                        -76.4136631748847748
    Molecular point group: c2v
  Basis Set: AUG-CC-PV(D+D)Z
    Blend: AUG-CC-PV(D+D)Z
  Basis Set: (AUG-CC-PV(D+D)Z AUX)
    Blend: AUG-CC-PVDZ-JKFIT
  @DF-RKS Final Energy:   -76.41368011632738
    Total Energy =                        -76.4136801163274129
  Basis Set: AUG-CC-PV(D+D)Z
    Blend: AUG-CC-PV(D+D)Z
  Basis Set: (AUG-CC-PV(D+D)Z AUX)
    Blend: AUG-CC-PVDZ-JKFIT
  @DF-RKS Final Energy:   -76.41363956855611
    Total Energy =                        -76.4136395685561212
  Basis Set: AUG-CC-PV(D+D)Z
    Blend: AUG-CC-PV(D+D)Z
  Basis Set: (AUG-CC-PV(D+D)Z AUX)
    Blend: AUG-CC-PVDZ-JKFIT
  @DF-RKS Final Energy:   -76.41362028969220
    Total Energy =                        -76.4136202896921901
  @DF-RKS Final Energy:   -76.41369568128080
    Total Energy =                        -76.4136956812808137
  @DF-RKS Final Energy:   -76.41373106720290
    Total Energy =                        -76.4137310672029031
  @DF-RKS Final Energy:   -76.41372847078483
    Total Energy =                        -76.4137284707848465
  @DF-RKS Final Energy:   -76.41372723990366
    Total Energy =                        -76.4137272399036789
  @DF-RKS Final Energy:   -76.41372913524609
    Total Energy =                        -76.4137291352460863
  @DF-RKS Final Energy:   -76.41372294041042
    Total Energy =                        -76.4137229404104090
  @DF-RKS Final Energy:   -76.41373229822371
    Total Energy =                        -76.4137322982237066
  @DF-RKS Final Energy:   -76.41372934438310
    Total Energy =                        -76.4137293443830856
  @DF-RKS Final Energy:   -76.41372880469925
    Total Energy =                        -76.4137288046992325
  @DF-RKS Final Energy:   -76.41372725794595
    Total Energy =                        -76.4137272579459648
  @DF-RKS Final Energy:   -76.41372727162289
    Total Energy =                        -76.4137272716229035
  **** Optimization is complete! (in 3 steps) ****
    Final optimized geometry and variables:
  @DF-RKS Final Energy:   -76.41373229813000
    Total Energy =                        -76.4137322981299860
  @DF-RKS Final Energy:   -76.41372934424184
    Total Energy =                        -76.4137293442418581
  @DF-RKS Final Energy:   -76.41372880473182
    Total Energy =                        -76.4137288047318322
  @DF-RKS Final Energy:   -76.41372725816218
    Total Energy =                        -76.4137272581621829
  @DF-RKS Final Energy:   -76.41372727152736
    Total Energy =                        -76.4137272715273497
  @DF-RKS Final Energy:   -76.41373229813003
    Total Energy =                        -76.4137322981300287
  @DF-RKS Final Energy:   -76.41372934424183
    Total Energy =                        -76.4137293442418155
  @DF-RKS Final Energy:   -76.41372880473185
    Total Energy =                        -76.4137288047318464
  @DF-RKS Final Energy:   -76.41372725816221
    Total Energy =                        -76.4137272581622398
  Basis Set: AUG-CC-PV(D+D)Z
    Blend: AUG-CC-PV(D+D)Z
  Basis Set: (AUG-CC-PV(D+D)Z AUX)
    Blend: AUG-CC-PVDZ-JKFIT
  @DF-RKS Final Energy:   -76.41372727152734
    Total Energy =                        -76.4137272715273355
  Basis Set: AUG-CC-PV(D+D)Z
    Blend: AUG-CC-PV(D+D)Z
  Basis Set: (AUG-CC-PV(D+D)Z AUX)
    Blend: AUG-CC-PVDZ-JKFIT
  @DF-RKS Final Energy:   -76.41372923214664
    Total Energy =                        -76.4137292321466361
  Multiplicity = 1
  Basis Set: AUG-CC-PV(D+D)Z
    Blend: AUG-CC-PV(D+D)Z
  Basis Set: (AUG-CC-PV(D+D)Z AUX)
    Blend: AUG-CC-PVDZ-JKFIT
  @DF-RKS Final Energy:   -76.41372977745888
    Total Energy =                        -76.4137297774588973
    Molecular point group: cs

    Geometry (in Angstrom), charge = 0, multiplicity = 1:

       Center              X                  Y                   Z               Mass
    ------------   -----------------  -----------------  -----------------  -----------------
         O            0.000000000000    -0.000178979396    -0.065870188374    15.994914619570
         H            0.000000000000     0.763939090049     0.523800122212     1.007825032230
         H            0.000000000000    -0.761098557155     0.521607567942     1.007825032230

  Charge       = 0
  Multiplicity = 1
  Basis Set: AUG-CC-PV(D+D)Z
    Blend: AUG-CC-PV(D+D)Z
  Basis Set: (AUG-CC-PV(D+D)Z AUX)
    Blend: AUG-CC-PVDZ-JKFIT

    Orbital Energies [Eh]
    ---------------------

    Doubly Occupied:

       1Ap   -19.242855     2Ap    -1.147157     3Ap    -0.646761
       4Ap    -0.506311     1App   -0.429209

  @DF-RKS Final Energy:   -76.41372488494933

   => Energetics <=

    Nuclear Repulsion Energy =              9.1368728625032691
    One-Electron Energy =                -122.8178241954755237
    Two-Electron Energy =                  43.7443117251304869
    DFT Exchange-Correlation Energy =      -6.5196525453947558
    Empirical Dispersion Energy =           0.0000000000000000
    VV10 Nonlocal Energy =                  0.0425672682871995
    Total Energy =                        -76.4137248849493176

  Dipole Moment: [D]
     X:     0.0000      Y:     0.0032      Z:     1.8796     Total:     1.8796

  Vibration                       7                   8                   9
  Freq [cm^-1]                1626.0302           3848.4950           3958.6906
  Irrep                           A1                  A1                  B2
  Reduced mass [u]              1.0824              1.0454              1.0820
  Force const [mDyne/A]         1.6862              9.1225              9.9906

  ==> Thermochemistry Components <==

  Entropy, S
    Electronic S            0.000 [cal/(mol K)]        0.000 [J/(mol K)]       0.00000000 [mEh/K] (multiplicity = 1)
    Translational S        34.608 [cal/(mol K)]      144.801 [J/(mol K)]       0.05515177 [mEh/K] (mol. weight = 18.0106 [u], P = 101325.00 [Pa])
    Rotational S           10.482 [cal/(mol K)]       43.857 [J/(mol K)]       0.01670437 [mEh/K] (symmetry no. = 2)
    Vibrational S           0.007 [cal/(mol K)]        0.029 [J/(mol K)]       0.00001096 [mEh/K]
  Total S                  45.097 [cal/(mol K)]      188.687 [J/(mol K)]       0.07186710 [mEh/K]
  Correction S              0.000 [cal/(mol K)]        0.000 [J/(mol K)]       0.00000000 [mEh/K]

  Constant volume heat capacity, Cv
    Electronic Cv           0.000 [cal/(mol K)]        0.000 [J/(mol K)]       0.00000000 [mEh/K]
    Translational Cv        2.981 [cal/(mol K)]       12.472 [J/(mol K)]       0.00475022 [mEh/K]
    Rotational Cv           2.981 [cal/(mol K)]       12.472 [J/(mol K)]       0.00475022 [mEh/K]
    Vibrational Cv          0.048 [cal/(mol K)]        0.200 [J/(mol K)]       0.00007632 [mEh/K]
  Total Cv                  6.010 [cal/(mol K)]       25.144 [J/(mol K)]       0.00957675 [mEh/K]
  Correction Cv             0.000 [cal/(mol K)]        0.000 [J/(mol K)]       0.00000000 [mEh/K]

  Constant pressure heat capacity, Cp
    Electronic Cp           0.000 [cal/(mol K)]        0.000 [J/(mol K)]       0.00000000 [mEh/K]
    Translational Cp        4.968 [cal/(mol K)]       20.786 [J/(mol K)]       0.00791703 [mEh/K]
    Rotational Cp           2.981 [cal/(mol K)]       12.472 [J/(mol K)]       0.00475022 [mEh/K]
    Vibrational Cp          0.048 [cal/(mol K)]        0.200 [J/(mol K)]       0.00007632 [mEh/K]
  Total Cp                  7.997 [cal/(mol K)]       33.458 [J/(mol K)]       0.01274356 [mEh/K]
  Correction Cp             0.000 [cal/(mol K)]        0.000 [J/(mol K)]       0.00000000 [mEh/K]

  ==> Thermochemistry Energy Analysis <==

  Raw electronic energy, E0
  Total E0, Electronic energy at well bottom at 0 [K]                  -76.41373230 [Eh]

  Zero-point energy, ZPE_vib = Sum_i nu_i / 2
    Electronic ZPE          0.000 [kcal/mol]        0.000 [kJ/mol]       0.00000000 [Eh]
    Translational ZPE       0.000 [kcal/mol]        0.000 [kJ/mol]       0.00000000 [Eh]
    Rotational ZPE          0.000 [kcal/mol]        0.000 [kJ/mol]       0.00000000 [Eh]
    Vibrational ZPE        13.485 [kcal/mol]       56.423 [kJ/mol]       0.02149045 [Eh]        4716.608 [cm^-1]
  Correction ZPE           13.485 [kcal/mol]       56.423 [kJ/mol]       0.02149045 [Eh]        4716.608 [cm^-1]
  Total ZPE, Electronic energy at 0 [K]                                -76.39224185 [Eh]

  Thermal Energy, E (includes ZPE)
    Electronic E            0.000 [kcal/mol]        0.000 [kJ/mol]       0.00000000 [Eh]
    Translational E         0.889 [kcal/mol]        3.718 [kJ/mol]       0.00141628 [Eh]
    Rotational E            0.889 [kcal/mol]        3.718 [kJ/mol]       0.00141628 [Eh]
    Vibrational E          13.487 [kcal/mol]       56.431 [kJ/mol]       0.02149335 [Eh]
  Correction E             15.265 [kcal/mol]       63.868 [kJ/mol]       0.02432590 [Eh]
  Total E, Electronic energy at  298.15 [K]                            -76.38940640 [Eh]

  Enthalpy, H_trans = E_trans + k_B * T
    Electronic H            0.000 [kcal/mol]        0.000 [kJ/mol]       0.00000000 [Eh]
    Translational H         1.481 [kcal/mol]        6.197 [kJ/mol]       0.00236046 [Eh]
    Rotational H            0.889 [kcal/mol]        3.718 [kJ/mol]       0.00141628 [Eh]
    Vibrational H          13.487 [kcal/mol]       56.431 [kJ/mol]       0.02149335 [Eh]
  Correction H             15.857 [kcal/mol]       66.347 [kJ/mol]       0.02527008 [Eh]
  Total H, Enthalpy at  298.15 [K]                                     -76.38846221 [Eh]

  Gibbs free energy, G = H - T * S
    Electronic G            0.000 [kcal/mol]        0.000 [kJ/mol]       0.00000000 [Eh]
    Translational G        -8.837 [kcal/mol]      -36.975 [kJ/mol]      -0.01408304 [Eh]
    Rotational G           -2.237 [kcal/mol]       -9.358 [kJ/mol]      -0.00356413 [Eh]
    Vibrational G          13.485 [kcal/mol]       56.422 [kJ/mol]       0.02149008 [Eh]
  Correction G              2.411 [kcal/mol]       10.090 [kJ/mol]       0.00384291 [Eh]
  Total G, Free enthalpy at  298.15 [K]                                -76.40988939 [Eh]

*** Psi4 exiting successfully. Buy a developer a beer!
