                               Psi4 1.3.2 release

  ==> Input File <==

--------------------------------------------------------------------------
memory 144 GB

molecule {
0 1
S 0.0000000000 0.0000000000 0.0000000000
H 0.0000000000 0.0000000000 1.3377284100
H 1.3366219004 0.0000000000 -0.0543984776
}

set dynamic_level 1
set basis aug-cc-pV(D+d)Z

optimize("wB97X-V")
frequencies("wB97X-V")
--------------------------------------------------------------------------

    Molecular point group: c2v
  Charge       = 0
  Multiplicity = 1
  Basis Set: AUG-CC-PV(D+D)Z
    Blend: AUG-CC-PV(D+D)Z
  Basis Set: (AUG-CC-PV(D+D)Z AUX)
    Blend: AUG-CC-PVDZ-JKFIT
  @DF-RKS Final Energy:  -399.33536616799427
    Total Energy =                       -399.3353661679942093
    Molecular point group: c2v
  Basis Set: AUG-CC-PV(D+D)Z
    Blend: AUG-CC-PV(D+D)Z
  Basis Set: (AUG-CC-PV(D+D)Z AUX)
    Blend: AUG-CC-PVDZ-JKFIT
  @DF-RKS Final Energy:  -399.33538412419273
    Total Energy =                       -399.3353841241926716
  Basis Set: AUG-CC-PV(D+D)Z
    Blend: AUG-CC-PV(D+D)Z
  Basis Set: (AUG-CC-PV(D+D)Z AUX)
    Blend: AUG-CC-PVDZ-JKFIT
  @DF-RKS Final Energy:  -399.33534395003085
    Total Energy =                       -399.3353439500309037
  Basis Set: AUG-CC-PV(D+D)Z
    Blend: AUG-CC-PV(D+D)Z
  Basis Set: (AUG-CC-PV(D+D)Z AUX)
    Blend: AUG-CC-PVDZ-JKFIT
  @DF-RKS Final Energy:  -399.33533936142237
    Total Energy =                       -399.3353393614223705
  @DF-RKS Final Energy:  -399.33538839851116
    Total Energy =                       -399.3353883985111565
  @DF-RKS Final Energy:  -399.33543487760119
    Total Energy =                       -399.3354348776011875
  @DF-RKS Final Energy:  -399.33543155943323
    Total Energy =                       -399.3354315594331752
  @DF-RKS Final Energy:  -399.33543408874499
    Total Energy =                       -399.3354340887450462
  @DF-RKS Final Energy:  -399.33543534316556
    Total Energy =                       -399.3354353431655568
  @DF-RKS Final Energy:  -399.33542999089156
    Total Energy =                       -399.3354299908914982
  @DF-RKS Final Energy:  -399.33543574175320
    Total Energy =                       -399.3354357417532015
  @DF-RKS Final Energy:  -399.33543360473686
    Total Energy =                       -399.3354336047368633
  @DF-RKS Final Energy:  -399.33543375778822
    Total Energy =                       -399.3354337577882234
  @DF-RKS Final Energy:  -399.33543355897285
    Total Energy =                       -399.3354335589728521
  @DF-RKS Final Energy:  -399.33543349303233
    Total Energy =                       -399.3354334930322693
  **** Optimization is complete! (in 3 steps) ****
    Final optimized geometry and variables:
  @DF-RKS Final Energy:  -399.33543574175309
    Total Energy =                       -399.3354357417531446
  @DF-RKS Final Energy:  -399.33543360473720
    Total Energy =                       -399.3354336047372044
  @DF-RKS Final Energy:  -399.33543375778794
    Total Energy =                       -399.3354337577878823
  @DF-RKS Final Energy:  -399.33543355897274
    Total Energy =                       -399.3354335589726816
  @DF-RKS Final Energy:  -399.33543349303233
    Total Energy =                       -399.3354334930322693
  @DF-RKS Final Energy:  -399.33543574175309
    Total Energy =                       -399.3354357417530878
  @DF-RKS Final Energy:  -399.33543360473681
    Total Energy =                       -399.3354336047367497
  @DF-RKS Final Energy:  -399.33543375778811
    Total Energy =                       -399.3354337577880528
  @DF-RKS Final Energy:  -399.33543355897262
    Total Energy =                       -399.3354335589726816
  Basis Set: AUG-CC-PV(D+D)Z
    Blend: AUG-CC-PV(D+D)Z
  Basis Set: (AUG-CC-PV(D+D)Z AUX)
    Blend: AUG-CC-PVDZ-JKFIT
  @DF-RKS Final Energy:  -399.33543349303250
    Total Energy =                       -399.3354334930324967
  Basis Set: AUG-CC-PV(D+D)Z
    Blend: AUG-CC-PV(D+D)Z
  Basis Set: (AUG-CC-PV(D+D)Z AUX)
    Blend: AUG-CC-PVDZ-JKFIT
  @DF-RKS Final Energy:  -399.33543441458903
    Total Energy =                       -399.3354344145890309
  Multiplicity = 1
  Basis Set: AUG-CC-PV(D+D)Z
    Blend: AUG-CC-PV(D+D)Z
  Basis Set: (AUG-CC-PV(D+D)Z AUX)
    Blend: AUG-CC-PVDZ-JKFIT
  @DF-RKS Final Energy:  -399.33543432916298
    Total Energy =                       -399.3354343291630357
    Molecular point group: cs

    Geometry (in Angstrom), charge = 0, multiplicity = 1:

       Center              X                  Y                   Z               Mass
    ------------   -----------------  -----------------  -----------------  -----------------
         S            0.000000000000    -0.000083573175    -0.055145514149    31.972071174400
         H            0.000000000000     0.974272820758     0.875980413832     1.007825032230
         H            0.000000000000    -0.971621559461     0.873446566964     1.007825032230

  Charge       = 0
  Multiplicity = 1
  Basis Set: AUG-CC-PV(D+D)Z
    Blend: AUG-CC-PV(D+D)Z
  Basis Set: (AUG-CC-PV(D+D)Z AUX)
    Blend: AUG-CC-PVDZ-JKFIT

    Orbital Energies [Eh]
    ---------------------

    Doubly Occupied:

       1Ap   -88.888459     2Ap    -8.054757     3Ap    -6.011359
       4Ap    -6.007939     1App   -6.001060     5Ap    -0.872707
       6Ap    -0.551159     7Ap    -0.472528     2App   -0.366086

  @DF-RKS Final Energy:  -399.33543215709562

   => Energetics <=

    Nuclear Repulsion Energy =             12.8542758880913528
    One-Electron Energy =                -576.5236156395395710
    Two-Electron Energy =                 183.9939275233625153
    DFT Exchange-Correlation Energy =     -19.7357892254091354
    Empirical Dispersion Energy =           0.0000000000000000
    VV10 Nonlocal Energy =                  0.0757692963991639
    Total Energy =                       -399.3354321570956245

  Dipole Moment: [D]
     X:     0.0000      Y:     0.0000      Z:     1.0742     Total:     1.0742

  Vibration                       7                   8                   9
  Freq [cm^-1]                1201.4818           2752.7901           2756.1352
  Irrep                           A1                  B2                  A1
  Reduced mass [u]              1.0393              1.0400              1.0360
  Force const [mDyne/A]         0.8839              4.6431              4.6367

  ==> Thermochemistry Components <==

  Entropy, S
    Electronic S            0.000 [cal/(mol K)]        0.000 [J/(mol K)]       0.00000000 [mEh/K] (multiplicity = 1)
    Translational S        36.501 [cal/(mol K)]      152.721 [J/(mol K)]       0.05816835 [mEh/K] (mol. weight = 33.9877 [u], P = 101325.00 [Pa])
    Rotational S           12.611 [cal/(mol K)]       52.764 [J/(mol K)]       0.02009679 [mEh/K] (symmetry no. = 2)
    Vibrational S           0.041 [cal/(mol K)]        0.172 [J/(mol K)]       0.00006565 [mEh/K]
  Total S                  49.153 [cal/(mol K)]      205.657 [J/(mol K)]       0.07833079 [mEh/K]
  Correction S              0.000 [cal/(mol K)]        0.000 [J/(mol K)]       0.00000000 [mEh/K]

  Constant volume heat capacity, Cv
    Electronic Cv           0.000 [cal/(mol K)]        0.000 [J/(mol K)]       0.00000000 [mEh/K]
    Translational Cv        2.981 [cal/(mol K)]       12.472 [J/(mol K)]       0.00475022 [mEh/K]
    Rotational Cv           2.981 [cal/(mol K)]       12.472 [J/(mol K)]       0.00475022 [mEh/K]
    Vibrational Cv          0.205 [cal/(mol K)]        0.858 [J/(mol K)]       0.00032682 [mEh/K]
  Total Cv                  6.167 [cal/(mol K)]       25.801 [J/(mol K)]       0.00982725 [mEh/K]
  Correction Cv             0.000 [cal/(mol K)]        0.000 [J/(mol K)]       0.00000000 [mEh/K]

  Constant pressure heat capacity, Cp
    Electronic Cp           0.000 [cal/(mol K)]        0.000 [J/(mol K)]       0.00000000 [mEh/K]
    Translational Cp        4.968 [cal/(mol K)]       20.786 [J/(mol K)]       0.00791703 [mEh/K]
    Rotational Cp           2.981 [cal/(mol K)]       12.472 [J/(mol K)]       0.00475022 [mEh/K]
    Vibrational Cp          0.205 [cal/(mol K)]        0.858 [J/(mol K)]       0.00032682 [mEh/K]
  Total Cp                  8.154 [cal/(mol K)]       34.116 [J/(mol K)]       0.01299406 [mEh/K]
  Correction Cp             0.000 [cal/(mol K)]        0.000 [J/(mol K)]       0.00000000 [mEh/K]

  ==> Thermochemistry Energy Analysis <==

  Raw electronic energy, E0
  Total E0, Electronic energy at well bottom at 0 [K]                 -399.33543574 [Eh]

  Zero-point energy, ZPE_vib = Sum_i nu_i / 2
    Electronic ZPE          0.000 [kcal/mol]        0.000 [kJ/mol]       0.00000000 [Eh]
    Translational ZPE       0.000 [kcal/mol]        0.000 [kJ/mol]       0.00000000 [Eh]
    Rotational ZPE          0.000 [kcal/mol]        0.000 [kJ/mol]       0.00000000 [Eh]
    Vibrational ZPE         9.593 [kcal/mol]       40.137 [kJ/mol]       0.01528743 [Eh]        3355.204 [cm^-1]
  Correction ZPE            9.593 [kcal/mol]       40.137 [kJ/mol]       0.01528743 [Eh]        3355.204 [cm^-1]
  Total ZPE, Electronic energy at 0 [K]                               -399.32014831 [Eh]

  Thermal Energy, E (includes ZPE)
    Electronic E            0.000 [kcal/mol]        0.000 [kJ/mol]       0.00000000 [Eh]
    Translational E         0.889 [kcal/mol]        3.718 [kJ/mol]       0.00141628 [Eh]
    Rotational E            0.889 [kcal/mol]        3.718 [kJ/mol]       0.00141628 [Eh]
    Vibrational E           9.603 [kcal/mol]       40.181 [kJ/mol]       0.01530413 [Eh]
  Correction E             11.381 [kcal/mol]       47.618 [kJ/mol]       0.01813669 [Eh]
  Total E, Electronic energy at  298.15 [K]                           -399.31729906 [Eh]

  Enthalpy, H_trans = E_trans + k_B * T
    Electronic H            0.000 [kcal/mol]        0.000 [kJ/mol]       0.00000000 [Eh]
    Translational H         1.481 [kcal/mol]        6.197 [kJ/mol]       0.00236046 [Eh]
    Rotational H            0.889 [kcal/mol]        3.718 [kJ/mol]       0.00141628 [Eh]
    Vibrational H           9.603 [kcal/mol]       40.181 [kJ/mol]       0.01530413 [Eh]
  Correction H             11.973 [kcal/mol]       50.097 [kJ/mol]       0.01908087 [Eh]
  Total H, Enthalpy at  298.15 [K]                                    -399.31635487 [Eh]

  Gibbs free energy, G = H - T * S
    Electronic G            0.000 [kcal/mol]        0.000 [kJ/mol]       0.00000000 [Eh]
    Translational G        -9.402 [kcal/mol]      -39.336 [kJ/mol]      -0.01498243 [Eh]
    Rotational G           -2.871 [kcal/mol]      -12.013 [kJ/mol]      -0.00457558 [Eh]
    Vibrational G           9.591 [kcal/mol]       40.130 [kJ/mol]       0.01528456 [Eh]
  Correction G             -2.682 [kcal/mol]      -11.220 [kJ/mol]      -0.00427345 [Eh]
  Total G, Free enthalpy at  298.15 [K]                               -399.33970920 [Eh]

*** Psi4 exiting successfully. Buy a developer a beer!
