                               Psi4 1.3.2 release

  ==> Input File <==

--------------------------------------------------------------------------
memory 144 GB

molecule {
0 1
Cl 0.0000000000 0.0000000000 0.0000000000
H 0.0000000000 0.0000000000 1.2756042300
}

set dynamic_level 1
set basis aug-cc-pV(D+d)Z

optimize("wB97X-V")
frequencies("wB97X-V")
--------------------------------------------------------------------------

    Molecular point group: c2v
  Charge       = 0
  Multiplicity = 1
  Basis Set: AUG-CC-PV(D+D)Z
    Blend: AUG-CC-PV(D+D)Z
  Basis Set: (AUG-CC-PV(D+D)Z AUX)
    Blend: AUG-CC-PVDZ-JKFIT
  @DF-RKS Final Energy:  -460.74274601750153
    Total Energy =                       -460.7427460175015881
    Molecular point group: c2v
  Basis Set: AUG-CC-PV(D+D)Z
    Blend: AUG-CC-PV(D+D)Z
  Basis Set: (AUG-CC-PV(D+D)Z AUX)
    Blend: AUG-CC-PVDZ-JKFIT
  @DF-RKS Final Energy:  -460.74276957946125
    Total Energy =                       -460.7427695794612532
  Basis Set: AUG-CC-PV(D+D)Z
    Blend: AUG-CC-PV(D+D)Z
  Basis Set: (AUG-CC-PV(D+D)Z AUX)
    Blend: AUG-CC-PVDZ-JKFIT
  @DF-RKS Final Energy:  -460.74271339981169
    Total Energy =                       -460.7427133998116346
  Basis Set: AUG-CC-PV(D+D)Z
    Blend: AUG-CC-PV(D+D)Z
  Basis Set: (AUG-CC-PV(D+D)Z AUX)
    Blend: AUG-CC-PVDZ-JKFIT
  @DF-RKS Final Energy:  -460.74278994261897
    Total Energy =                       -460.7427899426189697
  @DF-RKS Final Energy:  -460.74278363729553
    Total Energy =                       -460.7427836372954744
  @DF-RKS Final Energy:  -460.74278762530503
    Total Energy =                       -460.7427876253050272
  @DF-RKS Final Energy:  -460.74279017745687
    Total Energy =                       -460.7427901774568113
  @DF-RKS Final Energy:  -460.74278580669272
    Total Energy =                       -460.7427858066927229
  @DF-RKS Final Energy:  -460.74278589747450
    Total Energy =                       -460.7427858974745618
  **** Optimization is complete! (in 3 steps) ****
    Final optimized geometry and variables:
  @DF-RKS Final Energy:  -460.74279017745630
    Total Energy =                       -460.7427901774562997
  @DF-RKS Final Energy:  -460.74278580669210
    Total Energy =                       -460.7427858066920976
  Basis Set: AUG-CC-PV(D+D)Z
    Blend: AUG-CC-PV(D+D)Z
  Basis Set: (AUG-CC-PV(D+D)Z AUX)
    Blend: AUG-CC-PVDZ-JKFIT
  @DF-RKS Final Energy:  -460.74278589758114
    Total Energy =                       -460.7427858975811432
  Basis Set: AUG-CC-PV(D+D)Z
    Blend: AUG-CC-PV(D+D)Z
  Basis Set: (AUG-CC-PV(D+D)Z AUX)
    Blend: AUG-CC-PVDZ-JKFIT
  @DF-RKS Final Energy:  -460.74279017745647
    Total Energy =                       -460.7427901774564702
  Multiplicity = 1
  Basis Set: AUG-CC-PV(D+D)Z
    Blend: AUG-CC-PV(D+D)Z
  Basis Set: (AUG-CC-PV(D+D)Z AUX)
    Blend: AUG-CC-PVDZ-JKFIT
  @DF-RKS Final Energy:  -460.74278580669204
    Total Energy =                       -460.7427858066920408
    Molecular point group: c2v

    Geometry (in Angstrom), charge = 0, multiplicity = 1:

       Center              X                  Y                   Z               Mass
    ------------   -----------------  -----------------  -----------------  -----------------
         CL           0.000000000000     0.000000000000    -0.035897006049    34.968852682000
         H            0.000000000000     0.000000000000     1.245530797609     1.007825032230

  Charge       = 0
  Multiplicity = 1
  Basis Set: AUG-CC-PV(D+D)Z
    Blend: AUG-CC-PV(D+D)Z
  Basis Set: (AUG-CC-PV(D+D)Z AUX)
    Blend: AUG-CC-PVDZ-JKFIT

    Orbital Energies [Eh]
    ---------------------

    Doubly Occupied:

       1A1  -101.545586     2A1    -9.573991     3A1    -7.329301
       1B1    -7.319410     1B2    -7.319410     4A1    -0.977005
       5A1    -0.582422     2B1    -0.441445     2B2    -0.441445

  @DF-RKS Final Energy:  -460.74278589758114

   => Energetics <=

    Nuclear Repulsion Energy =              7.0203038795563621
    One-Electron Energy =                -649.8029189067275411
    Two-Electron Energy =                 203.5064018957029930
    DFT Exchange-Correlation Energy =     -21.5429873249852761
    Empirical Dispersion Energy =           0.0000000000000000
    VV10 Nonlocal Energy =                  0.0764145588723494
    Total Energy =                       -460.7427858975812001

  Dipole Moment: [D]
     X:     0.0000      Y:     0.0000      Z:     1.1626     Total:     1.1626

  Vibration                       6
  Freq [cm^-1]                3023.8371
  Irrep                           A1
  Reduced mass [u]              1.0360
  Force const [mDyne/A]         5.5812

  ==> Thermochemistry Components <==

  Entropy, S
    Electronic S            0.000 [cal/(mol K)]        0.000 [J/(mol K)]       0.00000000 [mEh/K] (multiplicity = 1)
    Translational S        36.671 [cal/(mol K)]      153.430 [J/(mol K)]       0.05843851 [mEh/K] (mol. weight = 35.9767 [u], P = 101325.00 [Pa])
    Rotational S            7.926 [cal/(mol K)]       33.162 [J/(mol K)]       0.01263082 [mEh/K] (symmetry no. = 1)
    Vibrational S           0.000 [cal/(mol K)]        0.000 [J/(mol K)]       0.00000002 [mEh/K]
  Total S                  44.597 [cal/(mol K)]      186.593 [J/(mol K)]       0.07106935 [mEh/K]
  Correction S              0.000 [cal/(mol K)]        0.000 [J/(mol K)]       0.00000000 [mEh/K]

  Constant volume heat capacity, Cv
    Electronic Cv           0.000 [cal/(mol K)]        0.000 [J/(mol K)]       0.00000000 [mEh/K]
    Translational Cv        2.981 [cal/(mol K)]       12.472 [J/(mol K)]       0.00475022 [mEh/K]
    Rotational Cv           1.987 [cal/(mol K)]        8.314 [J/(mol K)]       0.00316681 [mEh/K]
    Vibrational Cv          0.000 [cal/(mol K)]        0.001 [J/(mol K)]       0.00000031 [mEh/K]
  Total Cv                  4.968 [cal/(mol K)]       20.787 [J/(mol K)]       0.00791734 [mEh/K]
  Correction Cv             0.000 [cal/(mol K)]        0.000 [J/(mol K)]       0.00000000 [mEh/K]

  Constant pressure heat capacity, Cp
    Electronic Cp           0.000 [cal/(mol K)]        0.000 [J/(mol K)]       0.00000000 [mEh/K]
    Translational Cp        4.968 [cal/(mol K)]       20.786 [J/(mol K)]       0.00791703 [mEh/K]
    Rotational Cp           1.987 [cal/(mol K)]        8.314 [J/(mol K)]       0.00316681 [mEh/K]
    Vibrational Cp          0.000 [cal/(mol K)]        0.001 [J/(mol K)]       0.00000031 [mEh/K]
  Total Cp                  6.955 [cal/(mol K)]       29.101 [J/(mol K)]       0.01108415 [mEh/K]
  Correction Cp             0.000 [cal/(mol K)]        0.000 [J/(mol K)]       0.00000000 [mEh/K]

  ==> Thermochemistry Energy Analysis <==

  Raw electronic energy, E0
  Total E0, Electronic energy at well bottom at 0 [K]                 -460.74279018 [Eh]

  Zero-point energy, ZPE_vib = Sum_i nu_i / 2
    Electronic ZPE          0.000 [kcal/mol]        0.000 [kJ/mol]       0.00000000 [Eh]
    Translational ZPE       0.000 [kcal/mol]        0.000 [kJ/mol]       0.00000000 [Eh]
    Rotational ZPE          0.000 [kcal/mol]        0.000 [kJ/mol]       0.00000000 [Eh]
    Vibrational ZPE         4.323 [kcal/mol]       18.087 [kJ/mol]       0.00688881 [Eh]        1511.919 [cm^-1]
  Correction ZPE            4.323 [kcal/mol]       18.087 [kJ/mol]       0.00688881 [Eh]        1511.919 [cm^-1]
  Total ZPE, Electronic energy at 0 [K]                               -460.73590137 [Eh]

  Thermal Energy, E (includes ZPE)
    Electronic E            0.000 [kcal/mol]        0.000 [kJ/mol]       0.00000000 [Eh]
    Translational E         0.889 [kcal/mol]        3.718 [kJ/mol]       0.00141628 [Eh]
    Rotational E            0.592 [kcal/mol]        2.479 [kJ/mol]       0.00094418 [Eh]
    Vibrational E           4.323 [kcal/mol]       18.087 [kJ/mol]       0.00688881 [Eh]
  Correction E              5.804 [kcal/mol]       24.284 [kJ/mol]       0.00924928 [Eh]
  Total E, Electronic energy at  298.15 [K]                           -460.73354090 [Eh]

  Enthalpy, H_trans = E_trans + k_B * T
    Electronic H            0.000 [kcal/mol]        0.000 [kJ/mol]       0.00000000 [Eh]
    Translational H         1.481 [kcal/mol]        6.197 [kJ/mol]       0.00236046 [Eh]
    Rotational H            0.592 [kcal/mol]        2.479 [kJ/mol]       0.00094418 [Eh]
    Vibrational H           4.323 [kcal/mol]       18.087 [kJ/mol]       0.00688881 [Eh]
  Correction H              6.396 [kcal/mol]       26.763 [kJ/mol]       0.01019346 [Eh]
  Total H, Enthalpy at  298.15 [K]                                    -460.73259672 [Eh]

  Gibbs free energy, G = H - T * S
    Electronic G            0.000 [kcal/mol]        0.000 [kJ/mol]       0.00000000 [Eh]
    Translational G        -9.452 [kcal/mol]      -39.548 [kJ/mol]      -0.01506298 [Eh]
    Rotational G           -1.771 [kcal/mol]       -7.408 [kJ/mol]      -0.00282169 [Eh]
    Vibrational G           4.323 [kcal/mol]       18.087 [kJ/mol]       0.00688881 [Eh]
  Correction G             -6.900 [kcal/mol]      -28.870 [kJ/mol]      -0.01099587 [Eh]
  Total G, Free enthalpy at  298.15 [K]                               -460.75378604 [Eh]

*** Psi4 exiting successfully. Buy a developer a beer!
