                               Psi4 1.3.2 release

  ==> Input File <==

--------------------------------------------------------------------------
memory 144 GB

molecule {
0 1
H 0.0000000000 0.0000000000 0.0000000000
C 0.0000000000 0.0000000000 1.0668000000
N 0.0000000000 0.0000000000 2.2232000000
}

set dynamic_level 1
set basis aug-cc-pV(D+d)Z

optimize("wB97X-V")
frequencies("wB97X-V")
--------------------------------------------------------------------------

    Molecular point group: c2v
  Charge       = 0
  Multiplicity = 1
  Basis Set: AUG-CC-PV(D+D)Z
    Blend: AUG-CC-PV(D+D)Z
  Basis Set: (AUG-CC-PV(D+D)Z AUX)
    Blend: AUG-CC-PVDZ-JKFIT
  @DF-RKS Final Energy:   -93.40528336973256
    Total Energy =                        -93.4052833697325582
    Molecular point group: c2v
  Basis Set: AUG-CC-PV(D+D)Z
    Blend: AUG-CC-PV(D+D)Z
  Basis Set: (AUG-CC-PV(D+D)Z AUX)
    Blend: AUG-CC-PVDZ-JKFIT
  @DF-RKS Final Energy:   -93.40531688949557
    Total Energy =                        -93.4053168894955519
  Basis Set: AUG-CC-PV(D+D)Z
    Blend: AUG-CC-PV(D+D)Z
  Basis Set: (AUG-CC-PV(D+D)Z AUX)
    Blend: AUG-CC-PVDZ-JKFIT
  @DF-RKS Final Energy:   -93.40523883281909
    Total Energy =                        -93.4052388328190943
  Basis Set: AUG-CC-PV(D+D)Z
    Blend: AUG-CC-PV(D+D)Z
  Basis Set: (AUG-CC-PV(D+D)Z AUX)
    Blend: AUG-CC-PVDZ-JKFIT
  @DF-RKS Final Energy:   -93.40526722051384
    Total Energy =                        -93.4052672205138350
  @DF-RKS Final Energy:   -93.40529387305574
    Total Energy =                        -93.4052938730557401
  @DF-RKS Final Energy:   -93.40535487865132
    Total Energy =                        -93.4053548786513232
  @DF-RKS Final Energy:   -93.40534556331299
    Total Energy =                        -93.4053455633129914
  @DF-RKS Final Energy:   -93.40535382837535
    Total Energy =                        -93.4053538283753539
  @DF-RKS Final Energy:   -93.40535363762746
    Total Energy =                        -93.4053536376274565
  @DF-RKS Final Energy:   -93.40535047088584
    Total Energy =                        -93.4053504708858355
  @DF-RKS Final Energy:   -93.40535575180969
    Total Energy =                        -93.4053557518096653
  @DF-RKS Final Energy:   -93.40535042654737
    Total Energy =                        -93.4053504265473578
  @DF-RKS Final Energy:   -93.40535065003584
    Total Energy =                        -93.4053506500358424
  @DF-RKS Final Energy:   -93.40535294764354
    Total Energy =                        -93.4053529476435500
  @DF-RKS Final Energy:   -93.40535290701084
    Total Energy =                        -93.4053529070108368
  **** Optimization is complete! (in 3 steps) ****
    Final optimized geometry and variables:
  @DF-RKS Final Energy:   -93.40535575180976
    Total Energy =                        -93.4053557518097506
  @DF-RKS Final Energy:   -93.40535042654729
    Total Energy =                        -93.4053504265472867
  @DF-RKS Final Energy:   -93.40535065003557
    Total Energy =                        -93.4053506500355724
  @DF-RKS Final Energy:   -93.40535294764346
    Total Energy =                        -93.4053529476434505
  @DF-RKS Final Energy:   -93.40535290687272
    Total Energy =                        -93.4053529068727073
  @DF-RKS Final Energy:   -93.40535575180981
    Total Energy =                        -93.4053557518098216
  @DF-RKS Final Energy:   -93.40535042654750
    Total Energy =                        -93.4053504265475141
  @DF-RKS Final Energy:   -93.40535065003573
    Total Energy =                        -93.4053506500357429
  @DF-RKS Final Energy:   -93.40535294764365
    Total Energy =                        -93.4053529476436353
  @DF-RKS Final Energy:   -93.40535290687288
    Total Energy =                        -93.4053529068728920
  Basis Set: AUG-CC-PV(D+D)Z
    Blend: AUG-CC-PV(D+D)Z
  Basis Set: (AUG-CC-PV(D+D)Z AUX)
    Blend: AUG-CC-PVDZ-JKFIT
  @DF-RKS Final Energy:   -93.40535015257024
    Total Energy =                        -93.4053501525702217
  Basis Set: AUG-CC-PV(D+D)Z
    Blend: AUG-CC-PV(D+D)Z
  Basis Set: (AUG-CC-PV(D+D)Z AUX)
    Blend: AUG-CC-PVDZ-JKFIT
  @DF-RKS Final Energy:   -93.40534994270799
    Total Energy =                        -93.4053499427079714
  Multiplicity = 1
  Basis Set: AUG-CC-PV(D+D)Z
    Blend: AUG-CC-PV(D+D)Z
  Basis Set: (AUG-CC-PV(D+D)Z AUX)
    Blend: AUG-CC-PVDZ-JKFIT
  @DF-RKS Final Energy:   -93.40535548397034
    Total Energy =                        -93.4053554839703395
    Molecular point group: cs

    Geometry (in Angstrom), charge = 0, multiplicity = 1:

       Center              X                  Y                   Z               Mass
    ------------   -----------------  -----------------  -----------------  -----------------
         H            0.000000000000    -0.002246927327    -1.635422306003     1.007825032230
         C            0.000000000000     0.000364533784    -0.558850203766    12.000000000000
         N            0.000000000000    -0.000150673759     0.596613427938    14.003074004430

  Charge       = 0
  Multiplicity = 1
  Basis Set: AUG-CC-PV(D+D)Z
    Blend: AUG-CC-PV(D+D)Z
  Basis Set: (AUG-CC-PV(D+D)Z AUX)
    Blend: AUG-CC-PVDZ-JKFIT

    Orbital Energies [Eh]
    ---------------------

    Doubly Occupied:

       1Ap   -14.457208     2Ap   -10.345519     3Ap    -1.059266
       4Ap    -0.726866     5Ap    -0.500941     1App   -0.473836
       6Ap    -0.473836

  @DF-RKS Final Energy:   -93.40535548437958

   => Energetics <=

    Nuclear Repulsion Energy =             23.8438887104491997
    One-Electron Energy =                -172.5589256235567461
    Two-Electron Energy =                  64.0243208970921671
    DFT Exchange-Correlation Energy =      -8.7730359980729080
    Empirical Dispersion Energy =           0.0000000000000000
    VV10 Nonlocal Energy =                  0.0583965297087129
    Total Energy =                        -93.4053554843795837

  Dipole Moment: [D]
     X:     0.0000      Y:    -0.0025      Z:    -3.0933     Total:     3.0933

  Vibration                       6                   7                   8
  Freq [cm^-1]                 751.8904            752.4654           2228.4524
  Irrep                           B2                  B1                  A1
  Reduced mass [u]              1.3452              1.3452              4.9424
  Force const [mDyne/A]         0.4481              0.4488             14.4608

  Vibration                       9
  Freq [cm^-1]                3467.8851
  Irrep                           A1
  Reduced mass [u]              1.1996
  Force const [mDyne/A]         8.5002

  ==> Thermochemistry Components <==

  Entropy, S
    Electronic S            0.000 [cal/(mol K)]        0.000 [J/(mol K)]       0.00000000 [mEh/K] (multiplicity = 1)
    Translational S        35.816 [cal/(mol K)]      149.856 [J/(mol K)]       0.05707695 [mEh/K] (mol. weight = 27.0109 [u], P = 101325.00 [Pa])
    Rotational S           11.814 [cal/(mol K)]       49.430 [J/(mol K)]       0.01882680 [mEh/K] (symmetry no. = 1)
    Vibrational S           0.500 [cal/(mol K)]        2.094 [J/(mol K)]       0.00079740 [mEh/K]
  Total S                  48.131 [cal/(mol K)]      201.379 [J/(mol K)]       0.07670115 [mEh/K]
  Correction S              0.000 [cal/(mol K)]        0.000 [J/(mol K)]       0.00000000 [mEh/K]

  Constant volume heat capacity, Cv
    Electronic Cv           0.000 [cal/(mol K)]        0.000 [J/(mol K)]       0.00000000 [mEh/K]
    Translational Cv        2.981 [cal/(mol K)]       12.472 [J/(mol K)]       0.00475022 [mEh/K]
    Rotational Cv           1.987 [cal/(mol K)]        8.314 [J/(mol K)]       0.00316681 [mEh/K]
    Vibrational Cv          1.470 [cal/(mol K)]        6.152 [J/(mol K)]       0.00234331 [mEh/K]
  Total Cv                  6.438 [cal/(mol K)]       26.939 [J/(mol K)]       0.01026034 [mEh/K]
  Correction Cv             0.000 [cal/(mol K)]        0.000 [J/(mol K)]       0.00000000 [mEh/K]

  Constant pressure heat capacity, Cp
    Electronic Cp           0.000 [cal/(mol K)]        0.000 [J/(mol K)]       0.00000000 [mEh/K]
    Translational Cp        4.968 [cal/(mol K)]       20.786 [J/(mol K)]       0.00791703 [mEh/K]
    Rotational Cp           1.987 [cal/(mol K)]        8.314 [J/(mol K)]       0.00316681 [mEh/K]
    Vibrational Cp          1.470 [cal/(mol K)]        6.152 [J/(mol K)]       0.00234331 [mEh/K]
  Total Cp                  8.426 [cal/(mol K)]       35.253 [J/(mol K)]       0.01342715 [mEh/K]
  Correction Cp             0.000 [cal/(mol K)]        0.000 [J/(mol K)]       0.00000000 [mEh/K]

  ==> Thermochemistry Energy Analysis <==

  Raw electronic energy, E0
  Total E0, Electronic energy at well bottom at 0 [K]                  -93.40535575 [Eh]

  Zero-point energy, ZPE_vib = Sum_i nu_i / 2
    Electronic ZPE          0.000 [kcal/mol]        0.000 [kJ/mol]       0.00000000 [Eh]
    Translational ZPE       0.000 [kcal/mol]        0.000 [kJ/mol]       0.00000000 [Eh]
    Rotational ZPE          0.000 [kcal/mol]        0.000 [kJ/mol]       0.00000000 [Eh]
    Vibrational ZPE        10.294 [kcal/mol]       43.070 [kJ/mol]       0.01640439 [Eh]        3600.347 [cm^-1]
  Correction ZPE           10.294 [kcal/mol]       43.070 [kJ/mol]       0.01640439 [Eh]        3600.347 [cm^-1]
  Total ZPE, Electronic energy at 0 [K]                                -93.38895137 [Eh]

  Thermal Energy, E (includes ZPE)
    Electronic E            0.000 [kcal/mol]        0.000 [kJ/mol]       0.00000000 [Eh]
    Translational E         0.889 [kcal/mol]        3.718 [kJ/mol]       0.00141628 [Eh]
    Rotational E            0.592 [kcal/mol]        2.479 [kJ/mol]       0.00094418 [Eh]
    Vibrational E          10.411 [kcal/mol]       43.561 [kJ/mol]       0.01659135 [Eh]
  Correction E             11.892 [kcal/mol]       49.758 [kJ/mol]       0.01895181 [Eh]
  Total E, Electronic energy at  298.15 [K]                            -93.38640394 [Eh]

  Enthalpy, H_trans = E_trans + k_B * T
    Electronic H            0.000 [kcal/mol]        0.000 [kJ/mol]       0.00000000 [Eh]
    Translational H         1.481 [kcal/mol]        6.197 [kJ/mol]       0.00236046 [Eh]
    Rotational H            0.592 [kcal/mol]        2.479 [kJ/mol]       0.00094418 [Eh]
    Vibrational H          10.411 [kcal/mol]       43.561 [kJ/mol]       0.01659135 [Eh]
  Correction H             12.485 [kcal/mol]       52.237 [kJ/mol]       0.01989600 [Eh]
  Total H, Enthalpy at  298.15 [K]                                     -93.38545976 [Eh]

  Gibbs free energy, G = H - T * S
    Electronic G            0.000 [kcal/mol]        0.000 [kJ/mol]       0.00000000 [Eh]
    Translational G        -9.197 [kcal/mol]      -38.482 [kJ/mol]      -0.01465703 [Eh]
    Rotational G           -2.930 [kcal/mol]      -12.259 [kJ/mol]      -0.00466903 [Eh]
    Vibrational G          10.262 [kcal/mol]       42.936 [kJ/mol]       0.01635361 [Eh]
  Correction G             -1.865 [kcal/mol]       -7.804 [kJ/mol]      -0.00297245 [Eh]
  Total G, Free enthalpy at  298.15 [K]                                -93.40832820 [Eh]

*** Psi4 exiting successfully. Buy a developer a beer!
