                               Psi4 1.3.2 release

  ==> Input File <==

--------------------------------------------------------------------------
memory 144 GB

molecule {
0 1
F 0.0000000000 0.0000000000 0.0000000000
H 0.0000000000 0.0000000000 0.9157690000
}

set dynamic_level 1
set basis aug-cc-pV(D+d)Z

optimize("wB97X-V")
frequencies("wB97X-V")
--------------------------------------------------------------------------

    Molecular point group: c2v
  Charge       = 0
  Multiplicity = 1
  Basis Set: AUG-CC-PV(D+D)Z
    Blend: AUG-CC-PV(D+D)Z
  Basis Set: (AUG-CC-PV(D+D)Z AUX)
    Blend: AUG-CC-PVDZ-JKFIT
  @DF-RKS Final Energy:  -100.42354090826319
    Total Energy =                       -100.4235409082631918
    Molecular point group: c2v
  Basis Set: AUG-CC-PV(D+D)Z
    Blend: AUG-CC-PV(D+D)Z
  Basis Set: (AUG-CC-PV(D+D)Z AUX)
    Blend: AUG-CC-PVDZ-JKFIT
  @DF-RKS Final Energy:  -100.42358225825346
    Total Energy =                       -100.4235822582534610
  Basis Set: AUG-CC-PV(D+D)Z
    Blend: AUG-CC-PV(D+D)Z
  Basis Set: (AUG-CC-PV(D+D)Z AUX)
    Blend: AUG-CC-PVDZ-JKFIT
  @DF-RKS Final Energy:  -100.42348259937444
    Total Energy =                       -100.4234825993744380
  Basis Set: AUG-CC-PV(D+D)Z
    Blend: AUG-CC-PV(D+D)Z
  Basis Set: (AUG-CC-PV(D+D)Z AUX)
    Blend: AUG-CC-PVDZ-JKFIT
  @DF-RKS Final Energy:  -100.42361525332223
    Total Energy =                       -100.4236152533222395
  @DF-RKS Final Energy:  -100.42360958457374
    Total Energy =                       -100.4236095845737395
  @DF-RKS Final Energy:  -100.42360490977950
    Total Energy =                       -100.4236049097794989
  @DF-RKS Final Energy:  -100.42361541635675
    Total Energy =                       -100.4236154163567534
  @DF-RKS Final Energy:  -100.42360750265512
    Total Energy =                       -100.4236075026551305
  @DF-RKS Final Energy:  -100.42360736324180
    Total Energy =                       -100.4236073632417998
  **** Optimization is complete! (in 3 steps) ****
    Final optimized geometry and variables:
  @DF-RKS Final Energy:  -100.42361541635682
    Total Energy =                       -100.4236154163568244
  @DF-RKS Final Energy:  -100.42360750265496
    Total Energy =                       -100.4236075026549599
  Basis Set: AUG-CC-PV(D+D)Z
    Blend: AUG-CC-PV(D+D)Z
  Basis Set: (AUG-CC-PV(D+D)Z AUX)
    Blend: AUG-CC-PVDZ-JKFIT
  @DF-RKS Final Energy:  -100.42360736324179
    Total Energy =                       -100.4236073632417856
  Basis Set: AUG-CC-PV(D+D)Z
    Blend: AUG-CC-PV(D+D)Z
  Basis Set: (AUG-CC-PV(D+D)Z AUX)
    Blend: AUG-CC-PVDZ-JKFIT
  @DF-RKS Final Energy:  -100.42361541635681
    Total Energy =                       -100.4236154163568244
  Multiplicity = 1
  Basis Set: AUG-CC-PV(D+D)Z
    Blend: AUG-CC-PV(D+D)Z
  Basis Set: (AUG-CC-PV(D+D)Z AUX)
    Blend: AUG-CC-PVDZ-JKFIT
  @DF-RKS Final Energy:  -100.42360750265507
    Total Energy =                       -100.4236075026550878
    Molecular point group: c2v

    Geometry (in Angstrom), charge = 0, multiplicity = 1:

       Center              X                  Y                   Z               Mass
    ------------   -----------------  -----------------  -----------------  -----------------
         F            0.000000000000     0.000000000000    -0.046408039766    18.998403162730
         H            0.000000000000     0.000000000000     0.874833052629     1.007825032230

  Charge       = 0
  Multiplicity = 1
  Basis Set: AUG-CC-PV(D+D)Z
    Blend: AUG-CC-PV(D+D)Z
  Basis Set: (AUG-CC-PV(D+D)Z AUX)
    Blend: AUG-CC-PVDZ-JKFIT

    Orbital Energies [Eh]
    ---------------------

    Doubly Occupied:

       1A1   -24.785144     2A1    -1.336809     3A1    -0.669223
       1B1    -0.531791     1B2    -0.531791

  @DF-RKS Final Energy:  -100.42360736324177

   => Energetics <=

    Nuclear Repulsion Energy =              5.1697595074153417
    One-Electron Energy =                -150.2806914402130474
    Two-Electron Energy =                  52.3833895520451236
    DFT Exchange-Correlation Energy =      -7.7394452040536770
    Empirical Dispersion Energy =           0.0000000000000000
    VV10 Nonlocal Energy =                  0.0433802215644909
    Total Energy =                       -100.4236073632417856

  Dipole Moment: [D]
     X:     0.0000      Y:     0.0000      Z:     1.8015     Total:     1.8015

  Vibration                       6
  Freq [cm^-1]                4108.1231
  Irrep                           A1
  Reduced mass [u]              1.0583
  Force const [mDyne/A]        10.5233

  ==> Thermochemistry Components <==

  Entropy, S
    Electronic S            0.000 [cal/(mol K)]        0.000 [J/(mol K)]       0.00000000 [mEh/K] (multiplicity = 1)
    Translational S        34.921 [cal/(mol K)]      146.112 [J/(mol K)]       0.05565095 [mEh/K] (mol. weight = 20.0062 [u], P = 101325.00 [Pa])
    Rotational S            6.571 [cal/(mol K)]       27.495 [J/(mol K)]       0.01047233 [mEh/K] (symmetry no. = 1)
    Vibrational S           0.000 [cal/(mol K)]        0.000 [J/(mol K)]       0.00000000 [mEh/K]
  Total S                  41.493 [cal/(mol K)]      173.607 [J/(mol K)]       0.06612328 [mEh/K]
  Correction S              0.000 [cal/(mol K)]        0.000 [J/(mol K)]       0.00000000 [mEh/K]

  Constant volume heat capacity, Cv
    Electronic Cv           0.000 [cal/(mol K)]        0.000 [J/(mol K)]       0.00000000 [mEh/K]
    Translational Cv        2.981 [cal/(mol K)]       12.472 [J/(mol K)]       0.00475022 [mEh/K]
    Rotational Cv           1.987 [cal/(mol K)]        8.314 [J/(mol K)]       0.00316681 [mEh/K]
    Vibrational Cv          0.000 [cal/(mol K)]        0.000 [J/(mol K)]       0.00000000 [mEh/K]
  Total Cv                  4.968 [cal/(mol K)]       20.786 [J/(mol K)]       0.00791703 [mEh/K]
  Correction Cv             0.000 [cal/(mol K)]        0.000 [J/(mol K)]       0.00000000 [mEh/K]

  Constant pressure heat capacity, Cp
    Electronic Cp           0.000 [cal/(mol K)]        0.000 [J/(mol K)]       0.00000000 [mEh/K]
    Translational Cp        4.968 [cal/(mol K)]       20.786 [J/(mol K)]       0.00791703 [mEh/K]
    Rotational Cp           1.987 [cal/(mol K)]        8.314 [J/(mol K)]       0.00316681 [mEh/K]
    Vibrational Cp          0.000 [cal/(mol K)]        0.000 [J/(mol K)]       0.00000000 [mEh/K]
  Total Cp                  6.955 [cal/(mol K)]       29.101 [J/(mol K)]       0.01108384 [mEh/K]
  Correction Cp             0.000 [cal/(mol K)]        0.000 [J/(mol K)]       0.00000000 [mEh/K]

  ==> Thermochemistry Energy Analysis <==

  Raw electronic energy, E0
  Total E0, Electronic energy at well bottom at 0 [K]                 -100.42361542 [Eh]

  Zero-point energy, ZPE_vib = Sum_i nu_i / 2
    Electronic ZPE          0.000 [kcal/mol]        0.000 [kJ/mol]       0.00000000 [Eh]
    Translational ZPE       0.000 [kcal/mol]        0.000 [kJ/mol]       0.00000000 [Eh]
    Rotational ZPE          0.000 [kcal/mol]        0.000 [kJ/mol]       0.00000000 [Eh]
    Vibrational ZPE         5.873 [kcal/mol]       24.572 [kJ/mol]       0.00935899 [Eh]        2054.062 [cm^-1]
  Correction ZPE            5.873 [kcal/mol]       24.572 [kJ/mol]       0.00935899 [Eh]        2054.062 [cm^-1]
  Total ZPE, Electronic energy at 0 [K]                               -100.41425642 [Eh]

  Thermal Energy, E (includes ZPE)
    Electronic E            0.000 [kcal/mol]        0.000 [kJ/mol]       0.00000000 [Eh]
    Translational E         0.889 [kcal/mol]        3.718 [kJ/mol]       0.00141628 [Eh]
    Rotational E            0.592 [kcal/mol]        2.479 [kJ/mol]       0.00094418 [Eh]
    Vibrational E           5.873 [kcal/mol]       24.572 [kJ/mol]       0.00935899 [Eh]
  Correction E              7.354 [kcal/mol]       30.769 [kJ/mol]       0.01171945 [Eh]
  Total E, Electronic energy at  298.15 [K]                           -100.41189596 [Eh]

  Enthalpy, H_trans = E_trans + k_B * T
    Electronic H            0.000 [kcal/mol]        0.000 [kJ/mol]       0.00000000 [Eh]
    Translational H         1.481 [kcal/mol]        6.197 [kJ/mol]       0.00236046 [Eh]
    Rotational H            0.592 [kcal/mol]        2.479 [kJ/mol]       0.00094418 [Eh]
    Vibrational H           5.873 [kcal/mol]       24.572 [kJ/mol]       0.00935899 [Eh]
  Correction H              7.947 [kcal/mol]       33.248 [kJ/mol]       0.01266364 [Eh]
  Total H, Enthalpy at  298.15 [K]                                    -100.41095178 [Eh]

  Gibbs free energy, G = H - T * S
    Electronic G            0.000 [kcal/mol]        0.000 [kJ/mol]       0.00000000 [Eh]
    Translational G        -8.931 [kcal/mol]      -37.366 [kJ/mol]      -0.01423187 [Eh]
    Rotational G           -1.367 [kcal/mol]       -5.719 [kJ/mol]      -0.00217814 [Eh]
    Vibrational G           5.873 [kcal/mol]       24.572 [kJ/mol]       0.00935899 [Eh]
  Correction G             -4.425 [kcal/mol]      -18.512 [kJ/mol]      -0.00705102 [Eh]
  Total G, Free enthalpy at  298.15 [K]                               -100.43066643 [Eh]

*** Psi4 exiting successfully. Buy a developer a beer!
