                               Psi4 1.3.2 release

  ==> Input File <==

--------------------------------------------------------------------------
memory 144 GB

molecule {
0 1
N 0.0000000000 0.0000000000 0.0000000000
H 0.0000000000 0.0000000000 1.0535284100
O 1.1513717966 0.0000000000 -0.3743228181
}

set dynamic_level 1
set basis aug-cc-pV(D+d)Z

optimize("wB97X-V")
frequencies("wB97X-V")
--------------------------------------------------------------------------

    Molecular point group: cs
  Charge       = 0
  Multiplicity = 1
  Basis Set: AUG-CC-PV(D+D)Z
    Blend: AUG-CC-PV(D+D)Z
  Basis Set: (AUG-CC-PV(D+D)Z AUX)
    Blend: AUG-CC-PVDZ-JKFIT
  @DF-RKS Final Energy:  -130.45392785733651
    Total Energy =                       -130.4539278573365095
    Molecular point group: cs
  Basis Set: AUG-CC-PV(D+D)Z
    Blend: AUG-CC-PV(D+D)Z
  Basis Set: (AUG-CC-PV(D+D)Z AUX)
    Blend: AUG-CC-PVDZ-JKFIT
  @DF-RKS Final Energy:  -130.45395095536293
    Total Energy =                       -130.4539509553629273
  Basis Set: AUG-CC-PV(D+D)Z
    Blend: AUG-CC-PV(D+D)Z
  Basis Set: (AUG-CC-PV(D+D)Z AUX)
    Blend: AUG-CC-PVDZ-JKFIT
  @DF-RKS Final Energy:  -130.45390212258357
    Total Energy =                       -130.4539021225835711
  Basis Set: AUG-CC-PV(D+D)Z
    Blend: AUG-CC-PV(D+D)Z
  Basis Set: (AUG-CC-PV(D+D)Z AUX)
    Blend: AUG-CC-PVDZ-JKFIT
  @DF-RKS Final Energy:  -130.45394583720974
    Total Energy =                       -130.4539458372097442
  @DF-RKS Final Energy:  -130.45390434197810
    Total Energy =                       -130.4539043419781308
  @DF-RKS Final Energy:  -130.45391327113910
    Total Energy =                       -130.4539132711391005
  @DF-RKS Final Energy:  -130.45393668427789
    Total Energy =                       -130.4539366842778918
  @DF-RKS Final Energy:  -130.45407140845379
    Total Energy =                       -130.4540714084537854
  @DF-RKS Final Energy:  -130.45407609022485
    Total Energy =                       -130.4540760902248451
  @DF-RKS Final Energy:  -130.45406396184961
    Total Energy =                       -130.4540639618496130
  @DF-RKS Final Energy:  -130.45407193674930
    Total Energy =                       -130.4540719367493011
  @DF-RKS Final Energy:  -130.45406553126244
    Total Energy =                       -130.4540655312624438
  @DF-RKS Final Energy:  -130.45406121442684
    Total Energy =                       -130.4540612144268437
  @DF-RKS Final Energy:  -130.45407597811521
    Total Energy =                       -130.4540759781152133
  @DF-RKS Final Energy:  -130.45407852420732
    Total Energy =                       -130.4540785242073184
  @DF-RKS Final Energy:  -130.45407467865445
    Total Energy =                       -130.4540746786544503
  @DF-RKS Final Energy:  -130.45407955845246
    Total Energy =                       -130.4540795584524631
  @DF-RKS Final Energy:  -130.45407922237416
    Total Energy =                       -130.4540792223741619
  @DF-RKS Final Energy:  -130.45407260245025
    Total Energy =                       -130.4540726024502533
  @DF-RKS Final Energy:  -130.45407902358076
    Total Energy =                       -130.4540790235807322
  **** Optimization is complete! (in 4 steps) ****
    Final optimized geometry and variables:
  @DF-RKS Final Energy:  -130.45408436565111
    Total Energy =                       -130.4540843656511129
  @DF-RKS Final Energy:  -130.45408303728121
    Total Energy =                       -130.4540830372812081
  @DF-RKS Final Energy:  -130.45408289392179
    Total Energy =                       -130.4540828939217931
  @DF-RKS Final Energy:  -130.45408129421318
    Total Energy =                       -130.4540812942131822
  @DF-RKS Final Energy:  -130.45408219094668
    Total Energy =                       -130.4540821909466786
  @DF-RKS Final Energy:  -130.45408129401659
    Total Energy =                       -130.4540812940165893
  @DF-RKS Final Energy:  -130.45408189144743
    Total Energy =                       -130.4540818914474301
  @DF-RKS Final Energy:  -130.45408436565131
    Total Energy =                       -130.4540843656512834
  @DF-RKS Final Energy:  -130.45408303728126
    Total Energy =                       -130.4540830372812650
  @DF-RKS Final Energy:  -130.45408289392196
    Total Energy =                       -130.4540828939219352
  @DF-RKS Final Energy:  -130.45408129421310
    Total Energy =                       -130.4540812942130970
  @DF-RKS Final Energy:  -130.45408219094705
    Total Energy =                       -130.4540821909470480
  @DF-RKS Final Energy:  -130.45408129401656
    Total Energy =                       -130.4540812940165608
  @DF-RKS Final Energy:  -130.45408189144757
    Total Energy =                       -130.4540818914475722
  @DF-RKS Final Energy:  -130.45408085404986
    Total Energy =                       -130.4540808540498631
  @DF-RKS Final Energy:  -130.45408010251217
    Total Energy =                       -130.4540801025121652
  Basis Set: AUG-CC-PV(D+D)Z
    Blend: AUG-CC-PV(D+D)Z
  Basis Set: (AUG-CC-PV(D+D)Z AUX)
    Blend: AUG-CC-PVDZ-JKFIT
  @DF-RKS Final Energy:  -130.45407998648824
    Total Energy =                       -130.4540799864882104
  Basis Set: AUG-CC-PV(D+D)Z
    Blend: AUG-CC-PV(D+D)Z
  Basis Set: (AUG-CC-PV(D+D)Z AUX)
    Blend: AUG-CC-PVDZ-JKFIT
  @DF-RKS Final Energy:  -130.45407952533506
    Total Energy =                       -130.4540795253350325
  Multiplicity = 1
  Basis Set: AUG-CC-PV(D+D)Z
    Blend: AUG-CC-PV(D+D)Z
  Basis Set: (AUG-CC-PV(D+D)Z AUX)
    Blend: AUG-CC-PVDZ-JKFIT
  @DF-RKS Final Energy:  -130.45408267037715
    Total Energy =                       -130.4540826703771472
    Molecular point group: cs

    Geometry (in Angstrom), charge = 0, multiplicity = 1:

       Center              X                  Y                   Z               Mass
    ------------   -----------------  -----------------  -----------------  -----------------
         N            0.589370646862     0.156118975499     0.000000000000    14.003074004430
         H            0.592143967701     1.217859349590     0.000000000000     1.007825032230
         O           -0.553286998266    -0.213413749735     0.000000000000    15.994914619570

  Charge       = 0
  Multiplicity = 1
  Basis Set: AUG-CC-PV(D+D)Z
    Blend: AUG-CC-PV(D+D)Z
  Basis Set: (AUG-CC-PV(D+D)Z AUX)
    Blend: AUG-CC-PVDZ-JKFIT

    Orbital Energies [Eh]
    ---------------------

    Doubly Occupied:

       1Ap   -19.323741     2Ap   -14.560830     3Ap    -1.321457
       4Ap    -0.857071     5Ap    -0.656122     1App   -0.581139
       6Ap    -0.574984     7Ap    -0.357120

  @DF-RKS Final Energy:  -130.45408117594008

   => Energetics <=

    Nuclear Repulsion Energy =             30.4740692899379439
    One-Electron Energy =                -237.9258620517112774
    Two-Electron Energy =                  88.0595978092394063
    DFT Exchange-Correlation Energy =     -11.1288424898349625
    Empirical Dispersion Energy =           0.0000000000000000
    VV10 Nonlocal Energy =                  0.0669562664288257
    Total Energy =                       -130.4540811759400469

  Dipole Moment: [D]
     X:     0.4472      Y:     1.6642      Z:     0.0000     Total:     1.7232

  Vibration                       7                   8                   9
  Freq [cm^-1]                1573.7248           1740.3548           2976.7720
  Irrep                           Ap                  Ap                  Ap
  Reduced mass [u]              1.1952             11.0684              1.0754
  Force const [mDyne/A]         1.7440             19.7520              5.6146

  ==> Thermochemistry Components <==

  Entropy, S
    Electronic S            0.000 [cal/(mol K)]        0.000 [J/(mol K)]       0.00000000 [mEh/K] (multiplicity = 1)
    Translational S        36.227 [cal/(mol K)]      151.576 [J/(mol K)]       0.05773217 [mEh/K] (mol. weight = 31.0058 [u], P = 101325.00 [Pa])
    Rotational S           16.475 [cal/(mol K)]       68.932 [J/(mol K)]       0.02625468 [mEh/K] (symmetry no. = 1)
    Vibrational S           0.013 [cal/(mol K)]        0.054 [J/(mol K)]       0.00002044 [mEh/K]
  Total S                  52.715 [cal/(mol K)]      220.561 [J/(mol K)]       0.08400728 [mEh/K]
  Correction S              0.000 [cal/(mol K)]        0.000 [J/(mol K)]       0.00000000 [mEh/K]

  Constant volume heat capacity, Cv
    Electronic Cv           0.000 [cal/(mol K)]        0.000 [J/(mol K)]       0.00000000 [mEh/K]
    Translational Cv        2.981 [cal/(mol K)]       12.472 [J/(mol K)]       0.00475022 [mEh/K]
    Rotational Cv           2.981 [cal/(mol K)]       12.472 [J/(mol K)]       0.00475022 [mEh/K]
    Vibrational Cv          0.090 [cal/(mol K)]        0.375 [J/(mol K)]       0.00014273 [mEh/K]
  Total Cv                  6.051 [cal/(mol K)]       25.318 [J/(mol K)]       0.00964316 [mEh/K]
  Correction Cv             0.000 [cal/(mol K)]        0.000 [J/(mol K)]       0.00000000 [mEh/K]

  Constant pressure heat capacity, Cp
    Electronic Cp           0.000 [cal/(mol K)]        0.000 [J/(mol K)]       0.00000000 [mEh/K]
    Translational Cp        4.968 [cal/(mol K)]       20.786 [J/(mol K)]       0.00791703 [mEh/K]
    Rotational Cp           2.981 [cal/(mol K)]       12.472 [J/(mol K)]       0.00475022 [mEh/K]
    Vibrational Cp          0.090 [cal/(mol K)]        0.375 [J/(mol K)]       0.00014273 [mEh/K]
  Total Cp                  8.038 [cal/(mol K)]       33.633 [J/(mol K)]       0.01280997 [mEh/K]
  Correction Cp             0.000 [cal/(mol K)]        0.000 [J/(mol K)]       0.00000000 [mEh/K]

  ==> Thermochemistry Energy Analysis <==

  Raw electronic energy, E0
  Total E0, Electronic energy at well bottom at 0 [K]                 -130.45408437 [Eh]

  Zero-point energy, ZPE_vib = Sum_i nu_i / 2
    Electronic ZPE          0.000 [kcal/mol]        0.000 [kJ/mol]       0.00000000 [Eh]
    Translational ZPE       0.000 [kcal/mol]        0.000 [kJ/mol]       0.00000000 [Eh]
    Rotational ZPE          0.000 [kcal/mol]        0.000 [kJ/mol]       0.00000000 [Eh]
    Vibrational ZPE         8.993 [kcal/mol]       37.628 [kJ/mol]       0.01433161 [Eh]        3145.426 [cm^-1]
  Correction ZPE            8.993 [kcal/mol]       37.628 [kJ/mol]       0.01433161 [Eh]        3145.426 [cm^-1]
  Total ZPE, Electronic energy at 0 [K]                               -130.43975275 [Eh]

  Thermal Energy, E (includes ZPE)
    Electronic E            0.000 [kcal/mol]        0.000 [kJ/mol]       0.00000000 [Eh]
    Translational E         0.889 [kcal/mol]        3.718 [kJ/mol]       0.00141628 [Eh]
    Rotational E            0.889 [kcal/mol]        3.718 [kJ/mol]       0.00141628 [Eh]
    Vibrational E           8.997 [kcal/mol]       37.642 [kJ/mol]       0.01433702 [Eh]
  Correction E             10.774 [kcal/mol]       45.079 [kJ/mol]       0.01716957 [Eh]
  Total E, Electronic energy at  298.15 [K]                           -130.43691479 [Eh]

  Enthalpy, H_trans = E_trans + k_B * T
    Electronic H            0.000 [kcal/mol]        0.000 [kJ/mol]       0.00000000 [Eh]
    Translational H         1.481 [kcal/mol]        6.197 [kJ/mol]       0.00236046 [Eh]
    Rotational H            0.889 [kcal/mol]        3.718 [kJ/mol]       0.00141628 [Eh]
    Vibrational H           8.997 [kcal/mol]       37.642 [kJ/mol]       0.01433702 [Eh]
  Correction H             11.367 [kcal/mol]       47.558 [kJ/mol]       0.01811376 [Eh]
  Total H, Enthalpy at  298.15 [K]                                    -130.43597061 [Eh]

  Gibbs free energy, G = H - T * S
    Electronic G            0.000 [kcal/mol]        0.000 [kJ/mol]       0.00000000 [Eh]
    Translational G        -9.320 [kcal/mol]      -38.995 [kJ/mol]      -0.01485238 [Eh]
    Rotational G           -4.023 [kcal/mol]      -16.834 [kJ/mol]      -0.00641156 [Eh]
    Vibrational G           8.993 [kcal/mol]       37.626 [kJ/mol]       0.01433093 [Eh]
  Correction G             -4.351 [kcal/mol]      -18.203 [kJ/mol]      -0.00693301 [Eh]
  Total G, Free enthalpy at  298.15 [K]                               -130.46101738 [Eh]

*** Psi4 exiting successfully. Buy a developer a beer!
