                               Psi4 1.3.2 release

  ==> Input File <==

--------------------------------------------------------------------------
memory 144 GB

molecule {
0 1
O 0.0000000000 0.0000000000 0.0000000000
H 0.0000000000 0.0000000000 0.9638997500
Cl 1.6530447720 0.0000000000 -0.3711121967
}

set dynamic_level 1
set basis aug-cc-pV(D+d)Z

optimize("wB97X-V")
frequencies("wB97X-V")
--------------------------------------------------------------------------

    Molecular point group: cs
  Charge       = 0
  Multiplicity = 1
  Basis Set: AUG-CC-PV(D+D)Z
    Blend: AUG-CC-PV(D+D)Z
  Basis Set: (AUG-CC-PV(D+D)Z AUX)
    Blend: AUG-CC-PVDZ-JKFIT
  @DF-RKS Final Energy:  -535.88291870351611
    Total Energy =                       -535.8829187035159975
    Molecular point group: cs
  Basis Set: AUG-CC-PV(D+D)Z
    Blend: AUG-CC-PV(D+D)Z
  Basis Set: (AUG-CC-PV(D+D)Z AUX)
    Blend: AUG-CC-PVDZ-JKFIT
  @DF-RKS Final Energy:  -535.88292168257510
    Total Energy =                       -535.8829216825749882
  Basis Set: AUG-CC-PV(D+D)Z
    Blend: AUG-CC-PV(D+D)Z
  Basis Set: (AUG-CC-PV(D+D)Z AUX)
    Blend: AUG-CC-PVDZ-JKFIT
  @DF-RKS Final Energy:  -535.88291509855776
    Total Energy =                       -535.8829150985577598
  Basis Set: AUG-CC-PV(D+D)Z
    Blend: AUG-CC-PV(D+D)Z
  Basis Set: (AUG-CC-PV(D+D)Z AUX)
    Blend: AUG-CC-PVDZ-JKFIT
  @DF-RKS Final Energy:  -535.88292925453186
    Total Energy =                       -535.8829292545318594
  @DF-RKS Final Energy:  -535.88289852193907
    Total Energy =                       -535.8828985219390688
  @DF-RKS Final Energy:  -535.88289258785028
    Total Energy =                       -535.8828925878502787
  @DF-RKS Final Energy:  -535.88293872214604
    Total Energy =                       -535.8829387221461502
  @DF-RKS Final Energy:  -535.88297081152427
    Total Energy =                       -535.8829708115242738
  @DF-RKS Final Energy:  -535.88297152111568
    Total Energy =                       -535.8829715211155644
  @DF-RKS Final Energy:  -535.88296946783748
    Total Energy =                       -535.8829694678373698
  @DF-RKS Final Energy:  -535.88296800251555
    Total Energy =                       -535.8829680025155540
  @DF-RKS Final Energy:  -535.88296444232697
    Total Energy =                       -535.8829644423269656
  @DF-RKS Final Energy:  -535.88296935802509
    Total Energy =                       -535.8829693580250932
  @DF-RKS Final Energy:  -535.88296617515653
    Total Energy =                       -535.8829661751564117
  @DF-RKS Final Energy:  -535.88297394090398
    Total Energy =                       -535.8829739409039803
  @DF-RKS Final Energy:  -535.88297394209758
    Total Energy =                       -535.8829739420976921
  @DF-RKS Final Energy:  -535.88297330170883
    Total Energy =                       -535.8829733017089438
  @DF-RKS Final Energy:  -535.88296854039163
    Total Energy =                       -535.8829685403916301
  @DF-RKS Final Energy:  -535.88297015855744
    Total Energy =                       -535.8829701585574412
  @DF-RKS Final Energy:  -535.88297133074968
    Total Energy =                       -535.8829713307495695
  **** Optimization is complete! (in 3 steps) ****
    Final optimized geometry and variables:
  @DF-RKS Final Energy:  -535.88297394124197
    Total Energy =                       -535.8829739412418576
  @DF-RKS Final Energy:  -535.88297394210133
    Total Energy =                       -535.8829739421013301
  @DF-RKS Final Energy:  -535.88297330191381
    Total Energy =                       -535.8829733019138075
  @DF-RKS Final Energy:  -535.88296854012640
    Total Energy =                       -535.8829685401263987
  @DF-RKS Final Energy:  -535.88297015809837
    Total Energy =                       -535.8829701580984874
  @DF-RKS Final Energy:  -535.88297133106175
    Total Energy =                       -535.8829713310617535
  @DF-RKS Final Energy:  -535.88297048140919
    Total Energy =                       -535.8829704814091883
  @DF-RKS Final Energy:  -535.88297394124231
    Total Energy =                       -535.8829739412421986
  @DF-RKS Final Energy:  -535.88297394210144
    Total Energy =                       -535.8829739421014438
  @DF-RKS Final Energy:  -535.88297330191324
    Total Energy =                       -535.8829733019133528
  @DF-RKS Final Energy:  -535.88296854012617
    Total Energy =                       -535.8829685401262850
  @DF-RKS Final Energy:  -535.88297015809815
    Total Energy =                       -535.8829701580981464
  @DF-RKS Final Energy:  -535.88297133106198
    Total Energy =                       -535.8829713310618672
  @DF-RKS Final Energy:  -535.88297048140862
    Total Energy =                       -535.8829704814086199
  @DF-RKS Final Energy:  -535.88296950621600
    Total Energy =                       -535.8829695062159999
  @DF-RKS Final Energy:  -535.88296853752161
    Total Energy =                       -535.8829685375217196
  Basis Set: AUG-CC-PV(D+D)Z
    Blend: AUG-CC-PV(D+D)Z
  Basis Set: (AUG-CC-PV(D+D)Z AUX)
    Blend: AUG-CC-PVDZ-JKFIT
  @DF-RKS Final Energy:  -535.88297008709264
    Total Energy =                       -535.8829700870926445
  Basis Set: AUG-CC-PV(D+D)Z
    Blend: AUG-CC-PV(D+D)Z
  Basis Set: (AUG-CC-PV(D+D)Z AUX)
    Blend: AUG-CC-PVDZ-JKFIT
  @DF-RKS Final Energy:  -535.88297157005616
    Total Energy =                       -535.8829715700561565
  Multiplicity = 1
  Basis Set: AUG-CC-PV(D+D)Z
    Blend: AUG-CC-PV(D+D)Z
  Basis Set: (AUG-CC-PV(D+D)Z AUX)
    Blend: AUG-CC-PVDZ-JKFIT
  @DF-RKS Final Energy:  -535.88297263785250
    Total Energy =                       -535.8829726378525038
    Molecular point group: cs

    Geometry (in Angstrom), charge = 0, multiplicity = 1:

       Center              X                  Y                   Z               Mass
    ------------   -----------------  -----------------  -----------------  -----------------
         O            1.110046731377     0.234388751839     0.000000000000    15.994914619570
         H            1.120201827362     1.203941320541     0.000000000000     1.007825032230
         CL          -0.540025442258    -0.141908867264     0.000000000000    34.968852682000

  Charge       = 0
  Multiplicity = 1
  Basis Set: AUG-CC-PV(D+D)Z
    Blend: AUG-CC-PV(D+D)Z
  Basis Set: (AUG-CC-PV(D+D)Z AUX)
    Blend: AUG-CC-PVDZ-JKFIT

    Orbital Energies [Eh]
    ---------------------

    Doubly Occupied:

       1Ap  -101.584024     2Ap   -19.314250     3Ap    -9.607812
       4Ap    -7.367976     5Ap    -7.351406     1App   -7.350984
       6Ap    -1.212177     7Ap    -0.931878     8Ap    -0.650689
       9Ap    -0.559318     2App   -0.531167    10Ap    -0.429070
       3App   -0.394608

  @DF-RKS Final Energy:  -535.88297183282646

   => Energetics <=

    Nuclear Repulsion Energy =             51.0987466093583720
    One-Electron Energy =                -840.6036785405292449
    Two-Electron Energy =                 281.1822459313070794
    DFT Exchange-Correlation Energy =     -27.6690128165084772
    Empirical Dispersion Energy =           0.0000000000000000
    VV10 Nonlocal Energy =                  0.1087269835458549
    Total Energy =                       -535.8829718328264562

  Dipole Moment: [D]
     X:    -0.0106      Y:     1.5533      Z:     0.0000     Total:     1.5533

  Vibration                       7                   8                   9
  Freq [cm^-1]                 795.2470           1277.0471           3812.4945
  Irrep                           Ap                  Ap                  Ap
  Reduced mass [u]             17.2664              1.0741              1.0679
  Force const [mDyne/A]         6.4336              1.0321              9.1452

  ==> Thermochemistry Components <==

  Entropy, S
    Electronic S            0.000 [cal/(mol K)]        0.000 [J/(mol K)]       0.00000000 [mEh/K] (multiplicity = 1)
    Translational S        37.767 [cal/(mol K)]      158.018 [J/(mol K)]       0.06018576 [mEh/K] (mol. weight = 51.9716 [u], P = 101325.00 [Pa])
    Rotational S           18.402 [cal/(mol K)]       76.996 [J/(mol K)]       0.02932620 [mEh/K] (symmetry no. = 1)
    Vibrational S           0.241 [cal/(mol K)]        1.009 [J/(mol K)]       0.00038446 [mEh/K]
  Total S                  56.411 [cal/(mol K)]      236.023 [J/(mol K)]       0.08989642 [mEh/K]
  Correction S              0.000 [cal/(mol K)]        0.000 [J/(mol K)]       0.00000000 [mEh/K]

  Constant volume heat capacity, Cv
    Electronic Cv           0.000 [cal/(mol K)]        0.000 [J/(mol K)]       0.00000000 [mEh/K]
    Translational Cv        2.981 [cal/(mol K)]       12.472 [J/(mol K)]       0.00475022 [mEh/K]
    Rotational Cv           2.981 [cal/(mol K)]       12.472 [J/(mol K)]       0.00475022 [mEh/K]
    Vibrational Cv          0.818 [cal/(mol K)]        3.424 [J/(mol K)]       0.00130402 [mEh/K]
  Total Cv                  6.780 [cal/(mol K)]       28.367 [J/(mol K)]       0.01080445 [mEh/K]
  Correction Cv             0.000 [cal/(mol K)]        0.000 [J/(mol K)]       0.00000000 [mEh/K]

  Constant pressure heat capacity, Cp
    Electronic Cp           0.000 [cal/(mol K)]        0.000 [J/(mol K)]       0.00000000 [mEh/K]
    Translational Cp        4.968 [cal/(mol K)]       20.786 [J/(mol K)]       0.00791703 [mEh/K]
    Rotational Cp           2.981 [cal/(mol K)]       12.472 [J/(mol K)]       0.00475022 [mEh/K]
    Vibrational Cp          0.818 [cal/(mol K)]        3.424 [J/(mol K)]       0.00130402 [mEh/K]
  Total Cp                  8.767 [cal/(mol K)]       36.682 [J/(mol K)]       0.01397126 [mEh/K]
  Correction Cp             0.000 [cal/(mol K)]        0.000 [J/(mol K)]       0.00000000 [mEh/K]

  ==> Thermochemistry Energy Analysis <==

  Raw electronic energy, E0
  Total E0, Electronic energy at well bottom at 0 [K]                 -535.88297394 [Eh]

  Zero-point energy, ZPE_vib = Sum_i nu_i / 2
    Electronic ZPE          0.000 [kcal/mol]        0.000 [kJ/mol]       0.00000000 [Eh]
    Translational ZPE       0.000 [kcal/mol]        0.000 [kJ/mol]       0.00000000 [Eh]
    Rotational ZPE          0.000 [kcal/mol]        0.000 [kJ/mol]       0.00000000 [Eh]
    Vibrational ZPE         8.413 [kcal/mol]       35.199 [kJ/mol]       0.01340653 [Eh]        2942.394 [cm^-1]
  Correction ZPE            8.413 [kcal/mol]       35.199 [kJ/mol]       0.01340653 [Eh]        2942.394 [cm^-1]
  Total ZPE, Electronic energy at 0 [K]                               -535.86956741 [Eh]

  Thermal Energy, E (includes ZPE)
    Electronic E            0.000 [kcal/mol]        0.000 [kJ/mol]       0.00000000 [Eh]
    Translational E         0.889 [kcal/mol]        3.718 [kJ/mol]       0.00141628 [Eh]
    Rotational E            0.889 [kcal/mol]        3.718 [kJ/mol]       0.00141628 [Eh]
    Vibrational E           8.471 [kcal/mol]       35.441 [kJ/mol]       0.01349860 [Eh]
  Correction E             10.248 [kcal/mol]       42.877 [kJ/mol]       0.01633116 [Eh]
  Total E, Electronic energy at  298.15 [K]                           -535.86664278 [Eh]

  Enthalpy, H_trans = E_trans + k_B * T
    Electronic H            0.000 [kcal/mol]        0.000 [kJ/mol]       0.00000000 [Eh]
    Translational H         1.481 [kcal/mol]        6.197 [kJ/mol]       0.00236046 [Eh]
    Rotational H            0.889 [kcal/mol]        3.718 [kJ/mol]       0.00141628 [Eh]
    Vibrational H           8.471 [kcal/mol]       35.441 [kJ/mol]       0.01349860 [Eh]
  Correction H             10.840 [kcal/mol]       45.356 [kJ/mol]       0.01727534 [Eh]
  Total H, Enthalpy at  298.15 [K]                                    -535.86569860 [Eh]

  Gibbs free energy, G = H - T * S
    Electronic G            0.000 [kcal/mol]        0.000 [kJ/mol]       0.00000000 [Eh]
    Translational G        -9.779 [kcal/mol]      -40.916 [kJ/mol]      -0.01558392 [Eh]
    Rotational G           -4.598 [kcal/mol]      -19.238 [kJ/mol]      -0.00732733 [Eh]
    Vibrational G           8.399 [kcal/mol]       35.140 [kJ/mol]       0.01338398 [Eh]
  Correction G             -5.978 [kcal/mol]      -25.014 [kJ/mol]      -0.00952727 [Eh]
  Total G, Free enthalpy at  298.15 [K]                               -535.89250122 [Eh]

*** Psi4 exiting successfully. Buy a developer a beer!
