                               Psi4 1.3.2 release

  ==> Input File <==

--------------------------------------------------------------------------
memory 144 GB

molecule {
0 1
N 0.0000000000 0.0000000000 0.0000000000
N 0.0000000000 0.0000000000 1.1003000000
}

set dynamic_level 1
set basis aug-cc-pV(D+d)Z

optimize("wB97X-V")
frequencies("wB97X-V")
--------------------------------------------------------------------------

    Molecular point group: d2h
  Charge       = 0
  Multiplicity = 1
  Basis Set: AUG-CC-PV(D+D)Z
    Blend: AUG-CC-PV(D+D)Z
  Basis Set: (AUG-CC-PV(D+D)Z AUX)
    Blend: AUG-CC-PVDZ-JKFIT
  @DF-RKS Final Energy:  -109.51268294573580
    Total Energy =                       -109.5126829457358042
    Molecular point group: d2h
  Basis Set: AUG-CC-PV(D+D)Z
    Blend: AUG-CC-PV(D+D)Z
  Basis Set: (AUG-CC-PV(D+D)Z AUX)
    Blend: AUG-CC-PVDZ-JKFIT
  @DF-RKS Final Energy:  -109.51269571110230
    Total Energy =                       -109.5126957111022961
  Basis Set: AUG-CC-PV(D+D)Z
    Blend: AUG-CC-PV(D+D)Z
  Basis Set: (AUG-CC-PV(D+D)Z AUX)
    Blend: AUG-CC-PVDZ-JKFIT
  @DF-RKS Final Energy:  -109.51266419710825
    Total Energy =                       -109.5126641971082506
  Basis Set: AUG-CC-PV(D+D)Z
    Blend: AUG-CC-PV(D+D)Z
  Basis Set: (AUG-CC-PV(D+D)Z AUX)
    Blend: AUG-CC-PVDZ-JKFIT
  @DF-RKS Final Energy:  -109.51270372736587
    Total Energy =                       -109.5127037273658743
  @DF-RKS Final Energy:  -109.51270170128704
    Total Energy =                       -109.5127017012870425
  @DF-RKS Final Energy:  -109.51269987256879
    Total Energy =                       -109.5126998725687884
  @DF-RKS Final Energy:  -109.51270379796286
    Total Energy =                       -109.5127037979628568
  @DF-RKS Final Energy:  -109.51270086943367
    Total Energy =                       -109.5127008694336723
  @DF-RKS Final Energy:  -109.51270085204165
    Total Energy =                       -109.5127008520416467
  **** Optimization is complete! (in 3 steps) ****
    Final optimized geometry and variables:
  @DF-RKS Final Energy:  -109.51270379796294
    Total Energy =                       -109.5127037979629421
  @DF-RKS Final Energy:  -109.51270086943362
    Total Energy =                       -109.5127008694336155
  Basis Set: AUG-CC-PV(D+D)Z
    Blend: AUG-CC-PV(D+D)Z
  Basis Set: (AUG-CC-PV(D+D)Z AUX)
    Blend: AUG-CC-PVDZ-JKFIT
  @DF-RKS Final Energy:  -109.51270085204166
    Total Energy =                       -109.5127008520416609
  Basis Set: AUG-CC-PV(D+D)Z
    Blend: AUG-CC-PV(D+D)Z
  Basis Set: (AUG-CC-PV(D+D)Z AUX)
    Blend: AUG-CC-PVDZ-JKFIT
  @DF-RKS Final Energy:  -109.51270379796289
    Total Energy =                       -109.5127037979628852
  Multiplicity = 1
  Basis Set: AUG-CC-PV(D+D)Z
    Blend: AUG-CC-PV(D+D)Z
  Basis Set: (AUG-CC-PV(D+D)Z AUX)
    Blend: AUG-CC-PVDZ-JKFIT
  @DF-RKS Final Energy:  -109.51270086943366
    Total Energy =                       -109.5127008694336581
    Molecular point group: d2h

    Geometry (in Angstrom), charge = 0, multiplicity = 1:

       Center              X                  Y                   Z               Mass
    ------------   -----------------  -----------------  -----------------  -----------------
         N            0.000000000000     0.000000000000    -0.550977675012    14.003074004430
         N            0.000000000000     0.000000000000     0.550977675012    14.003074004430

  Charge       = 0
  Multiplicity = 1
  Basis Set: AUG-CC-PV(D+D)Z
    Blend: AUG-CC-PV(D+D)Z
  Basis Set: (AUG-CC-PV(D+D)Z AUX)
    Blend: AUG-CC-PVDZ-JKFIT

    Orbital Energies [Eh]
    ---------------------

    Doubly Occupied:

       1Ag   -14.536710     1B1u  -14.535147     2Ag    -1.260722
       2B1u   -0.677561     1B3u   -0.577929     1B2u   -0.577929
       3Ag    -0.546228

  @DF-RKS Final Energy:  -109.51270085204172

   => Energetics <=

    Nuclear Repulsion Energy =             23.5306115826261077
    One-Electron Energy =                -194.1586006463232650
    Two-Electron Energy =                  70.7271658088245232
    DFT Exchange-Correlation Energy =      -9.6708199847077267
    Empirical Dispersion Energy =           0.0000000000000000
    VV10 Nonlocal Energy =                  0.0589423875386450
    Total Energy =                       -109.5127008520417178

  Dipole Moment: [D]
     X:     0.0000      Y:     0.0000      Z:    -0.0000     Total:     0.0000

  Vibration                       6
  Freq [cm^-1]                2491.8270
  Irrep                           Ag
  Reduced mass [u]             14.0031
  Force const [mDyne/A]        51.2282

  ==> Thermochemistry Components <==

  Entropy, S
    Electronic S            0.000 [cal/(mol K)]        0.000 [J/(mol K)]       0.00000000 [mEh/K] (multiplicity = 1)
    Translational S        35.924 [cal/(mol K)]      150.307 [J/(mol K)]       0.05724883 [mEh/K] (mol. weight = 28.0061 [u], P = 101325.00 [Pa])
    Rotational S            9.852 [cal/(mol K)]       41.223 [J/(mol K)]       0.01570095 [mEh/K] (symmetry no. = 2)
    Vibrational S           0.000 [cal/(mol K)]        0.001 [J/(mol K)]       0.00000025 [mEh/K]
  Total S                  45.777 [cal/(mol K)]      191.530 [J/(mol K)]       0.07295002 [mEh/K]
  Correction S              0.000 [cal/(mol K)]        0.000 [J/(mol K)]       0.00000000 [mEh/K]

  Constant volume heat capacity, Cv
    Electronic Cv           0.000 [cal/(mol K)]        0.000 [J/(mol K)]       0.00000000 [mEh/K]
    Translational Cv        2.981 [cal/(mol K)]       12.472 [J/(mol K)]       0.00475022 [mEh/K]
    Rotational Cv           1.987 [cal/(mol K)]        8.314 [J/(mol K)]       0.00316681 [mEh/K]
    Vibrational Cv          0.002 [cal/(mol K)]        0.007 [J/(mol K)]       0.00000274 [mEh/K]
  Total Cv                  4.970 [cal/(mol K)]       20.793 [J/(mol K)]       0.00791977 [mEh/K]
  Correction Cv             0.000 [cal/(mol K)]        0.000 [J/(mol K)]       0.00000000 [mEh/K]

  Constant pressure heat capacity, Cp
    Electronic Cp           0.000 [cal/(mol K)]        0.000 [J/(mol K)]       0.00000000 [mEh/K]
    Translational Cp        4.968 [cal/(mol K)]       20.786 [J/(mol K)]       0.00791703 [mEh/K]
    Rotational Cp           1.987 [cal/(mol K)]        8.314 [J/(mol K)]       0.00316681 [mEh/K]
    Vibrational Cp          0.002 [cal/(mol K)]        0.007 [J/(mol K)]       0.00000274 [mEh/K]
  Total Cp                  6.957 [cal/(mol K)]       29.108 [J/(mol K)]       0.01108658 [mEh/K]
  Correction Cp             0.000 [cal/(mol K)]        0.000 [J/(mol K)]       0.00000000 [mEh/K]

  ==> Thermochemistry Energy Analysis <==

  Raw electronic energy, E0
  Total E0, Electronic energy at well bottom at 0 [K]                 -109.51270380 [Eh]

  Zero-point energy, ZPE_vib = Sum_i nu_i / 2
    Electronic ZPE          0.000 [kcal/mol]        0.000 [kJ/mol]       0.00000000 [Eh]
    Translational ZPE       0.000 [kcal/mol]        0.000 [kJ/mol]       0.00000000 [Eh]
    Rotational ZPE          0.000 [kcal/mol]        0.000 [kJ/mol]       0.00000000 [Eh]
    Vibrational ZPE         3.562 [kcal/mol]       14.904 [kJ/mol]       0.00567680 [Eh]        1245.914 [cm^-1]
  Correction ZPE            3.562 [kcal/mol]       14.904 [kJ/mol]       0.00567680 [Eh]        1245.914 [cm^-1]
  Total ZPE, Electronic energy at 0 [K]                               -109.50702700 [Eh]

  Thermal Energy, E (includes ZPE)
    Electronic E            0.000 [kcal/mol]        0.000 [kJ/mol]       0.00000000 [Eh]
    Translational E         0.889 [kcal/mol]        3.718 [kJ/mol]       0.00141628 [Eh]
    Rotational E            0.592 [kcal/mol]        2.479 [kJ/mol]       0.00094418 [Eh]
    Vibrational E           3.562 [kcal/mol]       14.905 [kJ/mol]       0.00567687 [Eh]
  Correction E              5.044 [kcal/mol]       21.102 [kJ/mol]       0.00803733 [Eh]
  Total E, Electronic energy at  298.15 [K]                           -109.50466647 [Eh]

  Enthalpy, H_trans = E_trans + k_B * T
    Electronic H            0.000 [kcal/mol]        0.000 [kJ/mol]       0.00000000 [Eh]
    Translational H         1.481 [kcal/mol]        6.197 [kJ/mol]       0.00236046 [Eh]
    Rotational H            0.592 [kcal/mol]        2.479 [kJ/mol]       0.00094418 [Eh]
    Vibrational H           3.562 [kcal/mol]       14.905 [kJ/mol]       0.00567687 [Eh]
  Correction H              5.636 [kcal/mol]       23.581 [kJ/mol]       0.00898151 [Eh]
  Total H, Enthalpy at  298.15 [K]                                    -109.50372228 [Eh]

  Gibbs free energy, G = H - T * S
    Electronic G            0.000 [kcal/mol]        0.000 [kJ/mol]       0.00000000 [Eh]
    Translational G        -9.230 [kcal/mol]      -38.617 [kJ/mol]      -0.01470828 [Eh]
    Rotational G           -2.345 [kcal/mol]       -9.812 [kJ/mol]      -0.00373705 [Eh]
    Vibrational G           3.562 [kcal/mol]       14.904 [kJ/mol]       0.00567679 [Eh]
  Correction G             -8.012 [kcal/mol]      -33.524 [kJ/mol]      -0.01276854 [Eh]
  Total G, Free enthalpy at  298.15 [K]                               -109.52547233 [Eh]

*** Psi4 exiting successfully. Buy a developer a beer!
