                               Psi4 1.3.2 release

  ==> Input File <==

--------------------------------------------------------------------------
memory 144 GB

molecule {
0 1
N 0.0000000000 0.0000000000 0.0000000000
H 0.0000000000 0.0000000000 1.0124000000
H 0.9722998620 0.0000000000 -0.2821112163
H -0.3756003142 0.8968229622 -0.2821112163
}

set dynamic_level 1
set basis aug-cc-pV(D+d)Z

optimize("wB97X-V")
frequencies("wB97X-V")
--------------------------------------------------------------------------

    Molecular point group: cs
  Charge       = 0
  Multiplicity = 1
  Basis Set: AUG-CC-PV(D+D)Z
    Blend: AUG-CC-PV(D+D)Z
  Basis Set: (AUG-CC-PV(D+D)Z AUX)
    Blend: AUG-CC-PVDZ-JKFIT
  @DF-RKS Final Energy:   -56.54611273098406
    Total Energy =                        -56.5461127309840634
    Molecular point group: cs
  Basis Set: AUG-CC-PV(D+D)Z
    Blend: AUG-CC-PV(D+D)Z
  Basis Set: (AUG-CC-PV(D+D)Z AUX)
    Blend: AUG-CC-PVDZ-JKFIT
  @DF-RKS Final Energy:   -56.54611739742161
    Total Energy =                        -56.5461173974216109
  Basis Set: AUG-CC-PV(D+D)Z
    Blend: AUG-CC-PV(D+D)Z
  Basis Set: (AUG-CC-PV(D+D)Z AUX)
    Blend: AUG-CC-PVDZ-JKFIT
  @DF-RKS Final Energy:   -56.54610243554088
    Total Energy =                        -56.5461024355408810
  Basis Set: AUG-CC-PV(D+D)Z
    Blend: AUG-CC-PV(D+D)Z
  Basis Set: (AUG-CC-PV(D+D)Z AUX)
    Blend: AUG-CC-PVDZ-JKFIT
  @DF-RKS Final Energy:   -56.54611801339577
    Total Energy =                        -56.5461180133957697
  @DF-RKS Final Energy:   -56.54610218698463
    Total Energy =                        -56.5461021869846405
  @DF-RKS Final Energy:   -56.54607584353347
    Total Energy =                        -56.5460758435334796
  @DF-RKS Final Energy:   -56.54614081082472
    Total Energy =                        -56.5461408108247241
  @DF-RKS Final Energy:   -56.54607583633410
    Total Energy =                        -56.5460758363341043
  @DF-RKS Final Energy:   -56.54614081758189
    Total Energy =                        -56.5461408175818860
  @DF-RKS Final Energy:   -56.54621837922294
    Total Energy =                        -56.5462183792229425
  @DF-RKS Final Energy:   -56.54621451655495
    Total Energy =                        -56.5462145165549543
  @DF-RKS Final Energy:   -56.54621680425077
    Total Energy =                        -56.5462168042507685
  @DF-RKS Final Energy:   -56.54621464050629
    Total Energy =                        -56.5462146405062782
  @DF-RKS Final Energy:   -56.54621707311925
    Total Energy =                        -56.5462170731192515
  @DF-RKS Final Energy:   -56.54621827407760
    Total Energy =                        -56.5462182740776029
  @DF-RKS Final Energy:   -56.54620994669158
    Total Energy =                        -56.5462099466915760
  @DF-RKS Final Energy:   -56.54621827554371
    Total Energy =                        -56.5462182755437084
  @DF-RKS Final Energy:   -56.54620994476664
    Total Energy =                        -56.5462099447666517
  @DF-RKS Final Energy:   -56.54622007515036
    Total Energy =                        -56.5462200751503659
  @DF-RKS Final Energy:   -56.54621723010818
    Total Energy =                        -56.5462172301081765
  **** Optimization is complete! (in 3 steps) ****
    Final optimized geometry and variables:
  @DF-RKS Final Energy:   -56.54621591647295
    Total Energy =                        -56.5462159164729457
  @DF-RKS Final Energy:   -56.54621566326838
    Total Energy =                        -56.5462156632683843
  @DF-RKS Final Energy:   -56.54621591525544
    Total Energy =                        -56.5462159152554449
  @DF-RKS Final Energy:   -56.54621566400994
    Total Energy =                        -56.5462156640099352
  @DF-RKS Final Energy:   -56.54621812960788
    Total Energy =                        -56.5462181296078796
  @DF-RKS Final Energy:   -56.54621762218950
    Total Energy =                        -56.5462176221895021
  @DF-RKS Final Energy:   -56.54621216802592
    Total Energy =                        -56.5462121680259173
  @DF-RKS Final Energy:   -56.54621213955502
    Total Energy =                        -56.5462121395550170
  @DF-RKS Final Energy:   -56.54621734995362
    Total Energy =                        -56.5462173499536220
  @DF-RKS Final Energy:   -56.54621737172542
    Total Energy =                        -56.5462173717254259
  @DF-RKS Final Energy:   -56.54621719342560
    Total Energy =                        -56.5462171934256048
  @DF-RKS Final Energy:   -56.54621723434338
    Total Energy =                        -56.5462172343433735
  @DF-RKS Final Energy:   -56.54621261168331
    Total Energy =                        -56.5462126116833090
  @DF-RKS Final Energy:   -56.54621261422216
    Total Energy =                        -56.5462126142221635
  @DF-RKS Final Energy:   -56.54620942805953
    Total Energy =                        -56.5462094280595338
  @DF-RKS Final Energy:   -56.54620989914781
    Total Energy =                        -56.5462098991478115
  Basis Set: AUG-CC-PV(D+D)Z
    Blend: AUG-CC-PV(D+D)Z
  Basis Set: (AUG-CC-PV(D+D)Z AUX)
    Blend: AUG-CC-PVDZ-JKFIT
  @DF-RKS Final Energy:   -56.54621590718562
    Total Energy =                        -56.5462159071856192
  Basis Set: AUG-CC-PV(D+D)Z
    Blend: AUG-CC-PV(D+D)Z
  Basis Set: (AUG-CC-PV(D+D)Z AUX)
    Blend: AUG-CC-PVDZ-JKFIT
  @DF-RKS Final Energy:   -56.54621708378166
    Total Energy =                        -56.5462170837816558
  Multiplicity = 1
  Basis Set: AUG-CC-PV(D+D)Z
    Blend: AUG-CC-PV(D+D)Z
  Basis Set: (AUG-CC-PV(D+D)Z AUX)
    Blend: AUG-CC-PVDZ-JKFIT
  @DF-RKS Final Energy:   -56.54621782143342
    Total Energy =                        -56.5462178214334230
    Molecular point group: c1

    Geometry (in Angstrom), charge = 0, multiplicity = 1:

       Center              X                  Y                   Z               Mass
    ------------   -----------------  -----------------  -----------------  -----------------
         N           -0.043477084762    -0.052247746960    -0.000264296739    14.003074004430
         H            0.563402035457    -0.058159082397     0.817282722875     1.007825032230
         H            0.564327228541    -0.061167696927    -0.816356232087     1.007825032230
         H           -0.523643419781     0.845275276189     0.002745740677     1.007825032230

  Charge       = 0
  Multiplicity = 1
  Basis Set: AUG-CC-PV(D+D)Z
    Blend: AUG-CC-PV(D+D)Z
  Basis Set: (AUG-CC-PV(D+D)Z AUX)
    Blend: AUG-CC-PVDZ-JKFIT

    Orbital Energies [Eh]
    ---------------------

    Doubly Occupied:

       1A    -14.408519     2A     -0.982588     3A     -0.570913
       4A     -0.569759     5A     -0.378116

  @DF-RKS Final Energy:   -56.54621782166670

   => Energetics <=

    Nuclear Repulsion Energy =             11.8891012080556333
    One-Electron Energy =                 -99.4637683069536820
    Two-Electron Energy =                  36.4395452179575159
    DFT Exchange-Correlation Energy =      -5.4529365507536252
    Empirical Dispersion Energy =           0.0000000000000000
    VV10 Nonlocal Energy =                  0.0418406100274546
    Total Energy =                        -56.5462178216667013

  Dipole Moment: [D]
     X:     0.9985      Y:     1.2000      Z:     0.0023     Total:     1.5611

  Vibration                       7                   8                   9
  Freq [cm^-1]                1026.7393           1494.9807           1644.7116
  Irrep                           Ap                 App                  Ap
  Reduced mass [u]              1.1804              1.0605              1.0658
  Force const [mDyne/A]         0.7332              1.3965              1.6987

  Vibration                       10                  11                  12
  Freq [cm^-1]                3502.6695           3591.6069           3635.1594
  Irrep                           Ap                 App                  Ap
  Reduced mass [u]              1.0269              1.0954              1.0899
  Force const [mDyne/A]         7.4229              8.3254              8.4853

  ==> Thermochemistry Components <==

  Entropy, S
    Electronic S            0.000 [cal/(mol K)]        0.000 [J/(mol K)]       0.00000000 [mEh/K] (multiplicity = 1)
    Translational S        34.441 [cal/(mol K)]      144.100 [J/(mol K)]       0.05488488 [mEh/K] (mol. weight = 17.0265 [u], P = 101325.00 [Pa])
    Rotational S           13.645 [cal/(mol K)]       57.092 [J/(mol K)]       0.02174514 [mEh/K] (symmetry no. = 1)
    Vibrational S           0.102 [cal/(mol K)]        0.428 [J/(mol K)]       0.00016309 [mEh/K]
  Total S                  48.188 [cal/(mol K)]      201.620 [J/(mol K)]       0.07679312 [mEh/K]
  Correction S              0.000 [cal/(mol K)]        0.000 [J/(mol K)]       0.00000000 [mEh/K]

  Constant volume heat capacity, Cv
    Electronic Cv           0.000 [cal/(mol K)]        0.000 [J/(mol K)]       0.00000000 [mEh/K]
    Translational Cv        2.981 [cal/(mol K)]       12.472 [J/(mol K)]       0.00475022 [mEh/K]
    Rotational Cv           2.981 [cal/(mol K)]       12.472 [J/(mol K)]       0.00475022 [mEh/K]
    Vibrational Cv          0.470 [cal/(mol K)]        1.966 [J/(mol K)]       0.00074881 [mEh/K]
  Total Cv                  6.431 [cal/(mol K)]       26.909 [J/(mol K)]       0.01024924 [mEh/K]
  Correction Cv             0.000 [cal/(mol K)]        0.000 [J/(mol K)]       0.00000000 [mEh/K]

  Constant pressure heat capacity, Cp
    Electronic Cp           0.000 [cal/(mol K)]        0.000 [J/(mol K)]       0.00000000 [mEh/K]
    Translational Cp        4.968 [cal/(mol K)]       20.786 [J/(mol K)]       0.00791703 [mEh/K]
    Rotational Cp           2.981 [cal/(mol K)]       12.472 [J/(mol K)]       0.00475022 [mEh/K]
    Vibrational Cp          0.470 [cal/(mol K)]        1.966 [J/(mol K)]       0.00074881 [mEh/K]
  Total Cp                  8.419 [cal/(mol K)]       35.224 [J/(mol K)]       0.01341606 [mEh/K]
  Correction Cp             0.000 [cal/(mol K)]        0.000 [J/(mol K)]       0.00000000 [mEh/K]

  ==> Thermochemistry Energy Analysis <==

  Raw electronic energy, E0
  Total E0, Electronic energy at well bottom at 0 [K]                  -56.54622008 [Eh]

  Zero-point energy, ZPE_vib = Sum_i nu_i / 2
    Electronic ZPE          0.000 [kcal/mol]        0.000 [kJ/mol]       0.00000000 [Eh]
    Translational ZPE       0.000 [kcal/mol]        0.000 [kJ/mol]       0.00000000 [Eh]
    Rotational ZPE          0.000 [kcal/mol]        0.000 [kJ/mol]       0.00000000 [Eh]
    Vibrational ZPE        21.295 [kcal/mol]       89.097 [kJ/mol]       0.03393528 [Eh]        7447.934 [cm^-1]
  Correction ZPE           21.295 [kcal/mol]       89.097 [kJ/mol]       0.03393528 [Eh]        7447.934 [cm^-1]
  Total ZPE, Electronic energy at 0 [K]                                -56.51228479 [Eh]

  Thermal Energy, E (includes ZPE)
    Electronic E            0.000 [kcal/mol]        0.000 [kJ/mol]       0.00000000 [Eh]
    Translational E         0.889 [kcal/mol]        3.718 [kJ/mol]       0.00141628 [Eh]
    Rotational E            0.889 [kcal/mol]        3.718 [kJ/mol]       0.00141628 [Eh]
    Vibrational E          21.320 [kcal/mol]       89.204 [kJ/mol]       0.03397620 [Eh]
  Correction E             23.098 [kcal/mol]       96.641 [kJ/mol]       0.03680875 [Eh]
  Total E, Electronic energy at  298.15 [K]                            -56.50941133 [Eh]

  Enthalpy, H_trans = E_trans + k_B * T
    Electronic H            0.000 [kcal/mol]        0.000 [kJ/mol]       0.00000000 [Eh]
    Translational H         1.481 [kcal/mol]        6.197 [kJ/mol]       0.00236046 [Eh]
    Rotational H            0.889 [kcal/mol]        3.718 [kJ/mol]       0.00141628 [Eh]
    Vibrational H          21.320 [kcal/mol]       89.204 [kJ/mol]       0.03397620 [Eh]
  Correction H             23.690 [kcal/mol]       99.120 [kJ/mol]       0.03775293 [Eh]
  Total H, Enthalpy at  298.15 [K]                                     -56.50846714 [Eh]

  Gibbs free energy, G = H - T * S
    Electronic G            0.000 [kcal/mol]        0.000 [kJ/mol]       0.00000000 [Eh]
    Translational G        -8.787 [kcal/mol]      -36.766 [kJ/mol]      -0.01400347 [Eh]
    Rotational G           -3.180 [kcal/mol]      -13.304 [kJ/mol]      -0.00506704 [Eh]
    Vibrational G          21.290 [kcal/mol]       89.077 [kJ/mol]       0.03392757 [Eh]
  Correction G              9.323 [kcal/mol]       39.007 [kJ/mol]       0.01485707 [Eh]
  Total G, Free enthalpy at  298.15 [K]                                -56.53136301 [Eh]

*** Psi4 exiting successfully. Buy a developer a beer!
