                               Psi4 1.3.2 release

  ==> Input File <==

--------------------------------------------------------------------------
memory 144 GB

molecule {
0 1
N 0.0000000000 0.0000000000 0.0000000000
N 0.0000000000 0.0000000000 1.1291000000
O 0.0000000000 -0.0000000000 2.3161000000
}

set dynamic_level 1
set basis aug-cc-pV(D+d)Z

optimize("wB97X-V")
frequencies("wB97X-V")
--------------------------------------------------------------------------

    Molecular point group: c2v
  Charge       = 0
  Multiplicity = 1
  Basis Set: AUG-CC-PV(D+D)Z
    Blend: AUG-CC-PV(D+D)Z
  Basis Set: (AUG-CC-PV(D+D)Z AUX)
    Blend: AUG-CC-PVDZ-JKFIT
  @DF-RKS Final Energy:  -184.63179111973938
    Total Energy =                       -184.6317911197393755
    Molecular point group: c2v
  Basis Set: AUG-CC-PV(D+D)Z
    Blend: AUG-CC-PV(D+D)Z
  Basis Set: (AUG-CC-PV(D+D)Z AUX)
    Blend: AUG-CC-PVDZ-JKFIT
  @DF-RKS Final Energy:  -184.63178175931930
    Total Energy =                       -184.6317817593192956
  Basis Set: AUG-CC-PV(D+D)Z
    Blend: AUG-CC-PV(D+D)Z
  Basis Set: (AUG-CC-PV(D+D)Z AUX)
    Blend: AUG-CC-PVDZ-JKFIT
  @DF-RKS Final Energy:  -184.63179698491734
    Total Energy =                       -184.6317969849173437
  Basis Set: AUG-CC-PV(D+D)Z
    Blend: AUG-CC-PV(D+D)Z
  Basis Set: (AUG-CC-PV(D+D)Z AUX)
    Blend: AUG-CC-PVDZ-JKFIT
  @DF-RKS Final Energy:  -184.63179576452575
    Total Energy =                       -184.6317957645257763
  @DF-RKS Final Energy:  -184.63178277683178
    Total Energy =                       -184.6317827768317841
  @DF-RKS Final Energy:  -184.63180016309758
    Total Energy =                       -184.6318001630975516
  @DF-RKS Final Energy:  -184.63179744838268
    Total Energy =                       -184.6317974483826845
  @DF-RKS Final Energy:  -184.63179935039412
    Total Energy =                       -184.6317993503941182
  @DF-RKS Final Energy:  -184.63179991073392
    Total Energy =                       -184.6317999107339176
  @DF-RKS Final Energy:  -184.63179670701606
    Total Energy =                       -184.6317967070160364
  @DF-RKS Final Energy:  -184.63180050595568
    Total Energy =                       -184.6318005059556810
  @DF-RKS Final Energy:  -184.63179879087838
    Total Energy =                       -184.6317987908783778
  @DF-RKS Final Energy:  -184.63179867365696
    Total Energy =                       -184.6317986736569594
  @DF-RKS Final Energy:  -184.63179881904566
    Total Energy =                       -184.6317988190456560
  @DF-RKS Final Energy:  -184.63179849071736
    Total Energy =                       -184.6317984907173582
  **** Optimization is complete! (in 3 steps) ****
    Final optimized geometry and variables:
  @DF-RKS Final Energy:  -184.63180050595579
    Total Energy =                       -184.6318005059558232
  @DF-RKS Final Energy:  -184.63179879087826
    Total Energy =                       -184.6317987908782925
  @DF-RKS Final Energy:  -184.63179867365693
    Total Energy =                       -184.6317986736569310
  @DF-RKS Final Energy:  -184.63179881904549
    Total Energy =                       -184.6317988190454855
  @DF-RKS Final Energy:  -184.63179848812248
    Total Energy =                       -184.6317984881225129
  @DF-RKS Final Energy:  -184.63180050595568
    Total Energy =                       -184.6318005059556810
  @DF-RKS Final Energy:  -184.63179879087809
    Total Energy =                       -184.6317987908781220
  @DF-RKS Final Energy:  -184.63179867365673
    Total Energy =                       -184.6317986736567320
  @DF-RKS Final Energy:  -184.63179881904551
    Total Energy =                       -184.6317988190455139
  @DF-RKS Final Energy:  -184.63179848812246
    Total Energy =                       -184.6317984881224277
  Basis Set: AUG-CC-PV(D+D)Z
    Blend: AUG-CC-PV(D+D)Z
  Basis Set: (AUG-CC-PV(D+D)Z AUX)
    Blend: AUG-CC-PVDZ-JKFIT
  @DF-RKS Final Energy:  -184.63179852399225
    Total Energy =                       -184.6317985239922450
  Basis Set: AUG-CC-PV(D+D)Z
    Blend: AUG-CC-PV(D+D)Z
  Basis Set: (AUG-CC-PV(D+D)Z AUX)
    Blend: AUG-CC-PVDZ-JKFIT
  @DF-RKS Final Energy:  -184.63179896189200
    Total Energy =                       -184.6317989618919739
  Multiplicity = 1
  Basis Set: AUG-CC-PV(D+D)Z
    Blend: AUG-CC-PV(D+D)Z
  Basis Set: (AUG-CC-PV(D+D)Z AUX)
    Blend: AUG-CC-PVDZ-JKFIT
  @DF-RKS Final Energy:  -184.63180033409972
    Total Energy =                       -184.6318003340997507
    Molecular point group: cs

    Geometry (in Angstrom), charge = 0, multiplicity = 1:

       Center              X                  Y                   Z               Mass
    ------------   -----------------  -----------------  -----------------  -----------------
         N            0.000000000000    -0.000299142822    -1.200244788053    14.003074004430
         N            0.000000000000     0.000583014908    -0.073066971340    14.003074004430
         O            0.000000000000    -0.000248521603     1.114746731794    15.994914619570

  Charge       = 0
  Multiplicity = 1
  Basis Set: AUG-CC-PV(D+D)Z
    Blend: AUG-CC-PV(D+D)Z
  Basis Set: (AUG-CC-PV(D+D)Z AUX)
    Blend: AUG-CC-PVDZ-JKFIT

    Orbital Energies [Eh]
    ---------------------

    Doubly Occupied:

       1Ap   -19.334921     2Ap   -14.668654     3Ap   -14.534638
       4Ap    -1.386217     5Ap    -1.225173     6Ap    -0.726947
       1App   -0.688290     7Ap    -0.688290     8Ap    -0.599154
       2App   -0.447784     9Ap    -0.447784

  @DF-RKS Final Energy:  -184.63180033087343

   => Energetics <=

    Nuclear Repulsion Energy =             60.7532325812179081
    One-Electron Energy =                -370.6283772624046264
    Two-Electron Energy =                 140.9806185647393306
    DFT Exchange-Correlation Energy =     -15.8285093823685088
    Empirical Dispersion Energy =           0.0000000000000000
    VV10 Nonlocal Energy =                  0.0912351679424797
    Total Energy =                       -184.6318003308734319

  Dipole Moment: [D]
     X:     0.0000      Y:     0.0010      Z:    -0.1917     Total:     0.1917

  Vibration                       6                   7                   8
  Freq [cm^-1]                 602.7422            608.3736           1364.4495
  Irrep                           B1                  B2                  A1
  Reduced mass [u]             14.2535             14.2535             15.1199
  Force const [mDyne/A]         3.0510              3.1082             16.5850

  Vibration                       9
  Freq [cm^-1]                2409.0776
  Irrep                           A1
  Reduced mass [u]             14.0790
  Force const [mDyne/A]        48.1420

  ==> Thermochemistry Components <==

  Entropy, S
    Electronic S            0.000 [cal/(mol K)]        0.000 [J/(mol K)]       0.00000000 [mEh/K] (multiplicity = 1)
    Translational S        37.271 [cal/(mol K)]      155.941 [J/(mol K)]       0.05939493 [mEh/K] (mol. weight = 44.0011 [u], P = 101325.00 [Pa])
    Rotational S           14.310 [cal/(mol K)]       59.872 [J/(mol K)]       0.02280409 [mEh/K] (symmetry no. = 1)
    Vibrational S           0.902 [cal/(mol K)]        3.772 [J/(mol K)]       0.00143666 [mEh/K]
  Total S                  52.482 [cal/(mol K)]      219.585 [J/(mol K)]       0.08363568 [mEh/K]
  Correction S              0.000 [cal/(mol K)]        0.000 [J/(mol K)]       0.00000000 [mEh/K]

  Constant volume heat capacity, Cv
    Electronic Cv           0.000 [cal/(mol K)]        0.000 [J/(mol K)]       0.00000000 [mEh/K]
    Translational Cv        2.981 [cal/(mol K)]       12.472 [J/(mol K)]       0.00475022 [mEh/K]
    Rotational Cv           1.987 [cal/(mol K)]        8.314 [J/(mol K)]       0.00316681 [mEh/K]
    Vibrational Cv          2.162 [cal/(mol K)]        9.045 [J/(mol K)]       0.00344509 [mEh/K]
  Total Cv                  7.130 [cal/(mol K)]       29.831 [J/(mol K)]       0.01136212 [mEh/K]
  Correction Cv             0.000 [cal/(mol K)]        0.000 [J/(mol K)]       0.00000000 [mEh/K]

  Constant pressure heat capacity, Cp
    Electronic Cp           0.000 [cal/(mol K)]        0.000 [J/(mol K)]       0.00000000 [mEh/K]
    Translational Cp        4.968 [cal/(mol K)]       20.786 [J/(mol K)]       0.00791703 [mEh/K]
    Rotational Cp           1.987 [cal/(mol K)]        8.314 [J/(mol K)]       0.00316681 [mEh/K]
    Vibrational Cp          2.162 [cal/(mol K)]        9.045 [J/(mol K)]       0.00344509 [mEh/K]
  Total Cp                  9.117 [cal/(mol K)]       38.146 [J/(mol K)]       0.01452893 [mEh/K]
  Correction Cp             0.000 [cal/(mol K)]        0.000 [J/(mol K)]       0.00000000 [mEh/K]

  ==> Thermochemistry Energy Analysis <==

  Raw electronic energy, E0
  Total E0, Electronic energy at well bottom at 0 [K]                 -184.63180051 [Eh]

  Zero-point energy, ZPE_vib = Sum_i nu_i / 2
    Electronic ZPE          0.000 [kcal/mol]        0.000 [kJ/mol]       0.00000000 [Eh]
    Translational ZPE       0.000 [kcal/mol]        0.000 [kJ/mol]       0.00000000 [Eh]
    Rotational ZPE          0.000 [kcal/mol]        0.000 [kJ/mol]       0.00000000 [Eh]
    Vibrational ZPE         7.126 [kcal/mol]       29.815 [kJ/mol]       0.01135585 [Eh]        2492.321 [cm^-1]
  Correction ZPE            7.126 [kcal/mol]       29.815 [kJ/mol]       0.01135585 [Eh]        2492.321 [cm^-1]
  Total ZPE, Electronic energy at 0 [K]                               -184.62044465 [Eh]

  Thermal Energy, E (includes ZPE)
    Electronic E            0.000 [kcal/mol]        0.000 [kJ/mol]       0.00000000 [Eh]
    Translational E         0.889 [kcal/mol]        3.718 [kJ/mol]       0.00141628 [Eh]
    Rotational E            0.592 [kcal/mol]        2.479 [kJ/mol]       0.00094418 [Eh]
    Vibrational E           7.328 [kcal/mol]       30.662 [kJ/mol]       0.01167841 [Eh]
  Correction E              8.810 [kcal/mol]       36.859 [kJ/mol]       0.01403887 [Eh]
  Total E, Electronic energy at  298.15 [K]                           -184.61776163 [Eh]

  Enthalpy, H_trans = E_trans + k_B * T
    Electronic H            0.000 [kcal/mol]        0.000 [kJ/mol]       0.00000000 [Eh]
    Translational H         1.481 [kcal/mol]        6.197 [kJ/mol]       0.00236046 [Eh]
    Rotational H            0.592 [kcal/mol]        2.479 [kJ/mol]       0.00094418 [Eh]
    Vibrational H           7.328 [kcal/mol]       30.662 [kJ/mol]       0.01167841 [Eh]
  Correction H              9.402 [kcal/mol]       39.338 [kJ/mol]       0.01498306 [Eh]
  Total H, Enthalpy at  298.15 [K]                                    -184.61681745 [Eh]

  Gibbs free energy, G = H - T * S
    Electronic G            0.000 [kcal/mol]        0.000 [kJ/mol]       0.00000000 [Eh]
    Translational G        -9.631 [kcal/mol]      -40.297 [kJ/mol]      -0.01534814 [Eh]
    Rotational G           -3.674 [kcal/mol]      -15.372 [kJ/mol]      -0.00585486 [Eh]
    Vibrational G           7.060 [kcal/mol]       29.537 [kJ/mol]       0.01125007 [Eh]
  Correction G             -6.246 [kcal/mol]      -26.131 [kJ/mol]      -0.00995292 [Eh]
  Total G, Free enthalpy at  298.15 [K]                               -184.64175343 [Eh]

*** Psi4 exiting successfully. Buy a developer a beer!
