                               Psi4 1.3.2 release

  ==> Input File <==

--------------------------------------------------------------------------
memory 144 GB

molecule {
0 1
O 0.0000000000 0.0000000000 0.0000000000
C 0.0000000000 0.0000000000 1.1584320400
S 0.0000000000 0.0000000000 2.7252829900
}

set dynamic_level 1
set basis aug-cc-pV(D+d)Z

optimize("wB97X-V")
frequencies("wB97X-V")
--------------------------------------------------------------------------

    Molecular point group: c2v
  Charge       = 0
  Multiplicity = 1
  Basis Set: AUG-CC-PV(D+D)Z
    Blend: AUG-CC-PV(D+D)Z
  Basis Set: (AUG-CC-PV(D+D)Z AUX)
    Blend: AUG-CC-PVDZ-JKFIT
  @DF-RKS Final Energy:  -511.46198716516153
    Total Energy =                       -511.4619871651614744
    Molecular point group: c2v
  Basis Set: AUG-CC-PV(D+D)Z
    Blend: AUG-CC-PV(D+D)Z
  Basis Set: (AUG-CC-PV(D+D)Z AUX)
    Blend: AUG-CC-PVDZ-JKFIT
  @DF-RKS Final Energy:  -511.46199068638879
    Total Energy =                       -511.4619906863888446
  Basis Set: AUG-CC-PV(D+D)Z
    Blend: AUG-CC-PV(D+D)Z
  Basis Set: (AUG-CC-PV(D+D)Z AUX)
    Blend: AUG-CC-PVDZ-JKFIT
  @DF-RKS Final Energy:  -511.46198130168511
    Total Energy =                       -511.4619813016851140
  Basis Set: AUG-CC-PV(D+D)Z
    Blend: AUG-CC-PV(D+D)Z
  Basis Set: (AUG-CC-PV(D+D)Z AUX)
    Blend: AUG-CC-PVDZ-JKFIT
  @DF-RKS Final Energy:  -511.46198340124312
    Total Energy =                       -511.4619834012431170
  @DF-RKS Final Energy:  -511.46198812785224
    Total Energy =                       -511.4619881278522371
  @DF-RKS Final Energy:  -511.46199232436550
    Total Energy =                       -511.4619923243654966
  @DF-RKS Final Energy:  -511.46199169696399
    Total Energy =                       -511.4619916969639917
  @DF-RKS Final Energy:  -511.46199063267960
    Total Energy =                       -511.4619906326796013
  @DF-RKS Final Energy:  -511.46199037962032
    Total Energy =                       -511.4619903796203175
  @DF-RKS Final Energy:  -511.46199149127477
    Total Energy =                       -511.4619914912747731
  @DF-RKS Final Energy:  -511.46199239418956
    Total Energy =                       -511.4619923941895649
  @DF-RKS Final Energy:  -511.46199126573799
    Total Energy =                       -511.4619912657379928
  @DF-RKS Final Energy:  -511.46199120263088
    Total Energy =                       -511.4619912026308839
  @DF-RKS Final Energy:  -511.46199092216403
    Total Energy =                       -511.4619909221640341
  @DF-RKS Final Energy:  -511.46199108489060
    Total Energy =                       -511.4619910848905988
  **** Optimization is complete! (in 3 steps) ****
    Final optimized geometry and variables:
  @DF-RKS Final Energy:  -511.46199239516750
    Total Energy =                       -511.4619923951675560
  @DF-RKS Final Energy:  -511.46199126683763
    Total Energy =                       -511.4619912668376287
  @DF-RKS Final Energy:  -511.46199120263111
    Total Energy =                       -511.4619912026311681
  @DF-RKS Final Energy:  -511.46199092216398
    Total Energy =                       -511.4619909221640341
  @DF-RKS Final Energy:  -511.46199108489014
    Total Energy =                       -511.4619910848901441
  @DF-RKS Final Energy:  -511.46199239516784
    Total Energy =                       -511.4619923951678402
  @DF-RKS Final Energy:  -511.46199126683740
    Total Energy =                       -511.4619912668374013
  @DF-RKS Final Energy:  -511.46199120263111
    Total Energy =                       -511.4619912026311113
  @DF-RKS Final Energy:  -511.46199092216386
    Total Energy =                       -511.4619909221638068
  @DF-RKS Final Energy:  -511.46199108489049
    Total Energy =                       -511.4619910848904851
  Basis Set: AUG-CC-PV(D+D)Z
    Blend: AUG-CC-PV(D+D)Z
  Basis Set: (AUG-CC-PV(D+D)Z AUX)
    Blend: AUG-CC-PVDZ-JKFIT
  @DF-RKS Final Energy:  -511.46199166345792
    Total Energy =                       -511.4619916634579226
  Basis Set: AUG-CC-PV(D+D)Z
    Blend: AUG-CC-PV(D+D)Z
  Basis Set: (AUG-CC-PV(D+D)Z AUX)
    Blend: AUG-CC-PVDZ-JKFIT
  @DF-RKS Final Energy:  -511.46199156218444
    Total Energy =                       -511.4619915621844370
  Multiplicity = 1
  Basis Set: AUG-CC-PV(D+D)Z
    Blend: AUG-CC-PV(D+D)Z
  Basis Set: (AUG-CC-PV(D+D)Z AUX)
    Blend: AUG-CC-PVDZ-JKFIT
  @DF-RKS Final Energy:  -511.46199225635314
    Total Energy =                       -511.4619922563531418
    Molecular point group: cs

    Geometry (in Angstrom), charge = 0, multiplicity = 1:

       Center              X                  Y                   Z               Mass
    ------------   -----------------  -----------------  -----------------  -----------------
         O            0.000000000000    -0.000287126850    -1.686347057956    15.994914619570
         C            0.000000000000     0.000665889206    -0.526424362468    12.000000000000
         S            0.000000000000    -0.000106283418     1.041223428379    31.972071174400

  Charge       = 0
  Multiplicity = 1
  Basis Set: AUG-CC-PV(D+D)Z
    Blend: AUG-CC-PV(D+D)Z
  Basis Set: (AUG-CC-PV(D+D)Z AUX)
    Blend: AUG-CC-PVDZ-JKFIT

    Orbital Energies [Eh]
    ---------------------

    Doubly Occupied:

       1Ap   -88.914455     2Ap   -19.327446     3Ap   -10.462376
       4Ap    -8.081522     5Ap    -6.038650     1App   -6.030827
       6Ap    -6.030827     7Ap    -1.283827     8Ap    -0.957844
       9Ap    -0.675127    10Ap    -0.598409     2App   -0.598409
      11Ap    -0.583360     3App   -0.402513    12Ap    -0.402513

  @DF-RKS Final Energy:  -511.46199225740099

   => Energetics <=

    Nuclear Repulsion Energy =             79.1376590091443006
    One-Electron Energy =                -860.5658624890727424
    Two-Electron Energy =                 299.1056006915647458
    DFT Exchange-Correlation Energy =     -29.2639232793419843
    Empirical Dispersion Energy =           0.0000000000000000
    VV10 Nonlocal Energy =                  0.1245338103047705
    Total Energy =                       -511.4619922574009365

  Dipole Moment: [D]
     X:     0.0000      Y:     0.0007      Z:     0.6655     Total:     0.6655

  Vibration                       6                   7                   8
  Freq [cm^-1]                 539.6617            541.7102            900.5731
  Irrep                           B2                  B1                  A1
  Reduced mass [u]             13.0332             13.0332             19.6254
  Force const [mDyne/A]         2.2364              2.2534              9.3779

  Vibration                       9
  Freq [cm^-1]                2141.0215
  Irrep                           A1
  Reduced mass [u]             13.1322
  Force const [mDyne/A]        35.4674

  ==> Thermochemistry Components <==

  Entropy, S
    Electronic S            0.000 [cal/(mol K)]        0.000 [J/(mol K)]       0.00000000 [mEh/K] (multiplicity = 1)
    Translational S        38.194 [cal/(mol K)]      159.802 [J/(mol K)]       0.06086550 [mEh/K] (mol. weight = 59.9670 [u], P = 101325.00 [Pa])
    Rotational S           15.766 [cal/(mol K)]       65.963 [J/(mol K)]       0.02512399 [mEh/K] (symmetry no. = 1)
    Vibrational S           1.268 [cal/(mol K)]        5.304 [J/(mol K)]       0.00202018 [mEh/K]
  Total S                  55.227 [cal/(mol K)]      231.069 [J/(mol K)]       0.08800967 [mEh/K]
  Correction S              0.000 [cal/(mol K)]        0.000 [J/(mol K)]       0.00000000 [mEh/K]

  Constant volume heat capacity, Cv
    Electronic Cv           0.000 [cal/(mol K)]        0.000 [J/(mol K)]       0.00000000 [mEh/K]
    Translational Cv        2.981 [cal/(mol K)]       12.472 [J/(mol K)]       0.00475022 [mEh/K]
    Rotational Cv           1.987 [cal/(mol K)]        8.314 [J/(mol K)]       0.00316681 [mEh/K]
    Vibrational Cv          2.826 [cal/(mol K)]       11.826 [J/(mol K)]       0.00450414 [mEh/K]
  Total Cv                  7.794 [cal/(mol K)]       32.612 [J/(mol K)]       0.01242116 [mEh/K]
  Correction Cv             0.000 [cal/(mol K)]        0.000 [J/(mol K)]       0.00000000 [mEh/K]

  Constant pressure heat capacity, Cp
    Electronic Cp           0.000 [cal/(mol K)]        0.000 [J/(mol K)]       0.00000000 [mEh/K]
    Translational Cp        4.968 [cal/(mol K)]       20.786 [J/(mol K)]       0.00791703 [mEh/K]
    Rotational Cp           1.987 [cal/(mol K)]        8.314 [J/(mol K)]       0.00316681 [mEh/K]
    Vibrational Cp          2.826 [cal/(mol K)]       11.826 [J/(mol K)]       0.00450414 [mEh/K]
  Total Cp                  9.782 [cal/(mol K)]       40.926 [J/(mol K)]       0.01558797 [mEh/K]
  Correction Cp             0.000 [cal/(mol K)]        0.000 [J/(mol K)]       0.00000000 [mEh/K]

  ==> Thermochemistry Energy Analysis <==

  Raw electronic energy, E0
  Total E0, Electronic energy at well bottom at 0 [K]                 -511.46199240 [Eh]

  Zero-point energy, ZPE_vib = Sum_i nu_i / 2
    Electronic ZPE          0.000 [kcal/mol]        0.000 [kJ/mol]       0.00000000 [Eh]
    Translational ZPE       0.000 [kcal/mol]        0.000 [kJ/mol]       0.00000000 [Eh]
    Rotational ZPE          0.000 [kcal/mol]        0.000 [kJ/mol]       0.00000000 [Eh]
    Vibrational ZPE         5.894 [kcal/mol]       24.661 [kJ/mol]       0.00939281 [Eh]        2061.483 [cm^-1]
  Correction ZPE            5.894 [kcal/mol]       24.661 [kJ/mol]       0.00939281 [Eh]        2061.483 [cm^-1]
  Total ZPE, Electronic energy at 0 [K]                               -511.45259959 [Eh]

  Thermal Energy, E (includes ZPE)
    Electronic E            0.000 [kcal/mol]        0.000 [kJ/mol]       0.00000000 [Eh]
    Translational E         0.889 [kcal/mol]        3.718 [kJ/mol]       0.00141628 [Eh]
    Rotational E            0.592 [kcal/mol]        2.479 [kJ/mol]       0.00094418 [Eh]
    Vibrational E           6.174 [kcal/mol]       25.831 [kJ/mol]       0.00983842 [Eh]
  Correction E              7.655 [kcal/mol]       32.028 [kJ/mol]       0.01219888 [Eh]
  Total E, Electronic energy at  298.15 [K]                           -511.44979351 [Eh]

  Enthalpy, H_trans = E_trans + k_B * T
    Electronic H            0.000 [kcal/mol]        0.000 [kJ/mol]       0.00000000 [Eh]
    Translational H         1.481 [kcal/mol]        6.197 [kJ/mol]       0.00236046 [Eh]
    Rotational H            0.592 [kcal/mol]        2.479 [kJ/mol]       0.00094418 [Eh]
    Vibrational H           6.174 [kcal/mol]       25.831 [kJ/mol]       0.00983842 [Eh]
  Correction H              8.247 [kcal/mol]       34.507 [kJ/mol]       0.01314307 [Eh]
  Total H, Enthalpy at  298.15 [K]                                    -511.44884933 [Eh]

  Gibbs free energy, G = H - T * S
    Electronic G            0.000 [kcal/mol]        0.000 [kJ/mol]       0.00000000 [Eh]
    Translational G        -9.906 [kcal/mol]      -41.448 [kJ/mol]      -0.01578659 [Eh]
    Rotational G           -4.108 [kcal/mol]      -17.188 [kJ/mol]      -0.00654653 [Eh]
    Vibrational G           5.796 [kcal/mol]       24.249 [kJ/mol]       0.00923611 [Eh]
  Correction G             -8.219 [kcal/mol]      -34.386 [kJ/mol]      -0.01309702 [Eh]
  Total G, Free enthalpy at  298.15 [K]                               -511.47508941 [Eh]

*** Psi4 exiting successfully. Buy a developer a beer!
