                               Psi4 1.3.2 release

  ==> Input File <==

--------------------------------------------------------------------------
memory 144 GB

molecule {
0 1
P 0.0000000000 0.0000000000 -0.0679917919
H 1.1903431933 0.0000000000 0.6964572780
H -0.5951715967 -1.0308674445 0.6964572780
H -0.5951715967 1.0308674445 0.6964572780
}

set dynamic_level 1
set basis aug-cc-pV(D+d)Z

optimize("wB97X-V")
frequencies("wB97X-V")
--------------------------------------------------------------------------

    Molecular point group: cs
  Charge       = 0
  Multiplicity = 1
  Basis Set: AUG-CC-PV(D+D)Z
    Blend: AUG-CC-PV(D+D)Z
  Basis Set: (AUG-CC-PV(D+D)Z AUX)
    Blend: AUG-CC-PVDZ-JKFIT
  @DF-RKS Final Energy:  -343.08766143704099
    Total Energy =                       -343.0876614370409925
    Molecular point group: cs
  Basis Set: AUG-CC-PV(D+D)Z
    Blend: AUG-CC-PV(D+D)Z
  Basis Set: (AUG-CC-PV(D+D)Z AUX)
    Blend: AUG-CC-PVDZ-JKFIT
  @DF-RKS Final Energy:  -343.08765907396003
    Total Energy =                       -343.0876590739600260
  Basis Set: AUG-CC-PV(D+D)Z
    Blend: AUG-CC-PV(D+D)Z
  Basis Set: (AUG-CC-PV(D+D)Z AUX)
    Blend: AUG-CC-PVDZ-JKFIT
  @DF-RKS Final Energy:  -343.08765950608034
    Total Energy =                       -343.0876595060803425
  Basis Set: AUG-CC-PV(D+D)Z
    Blend: AUG-CC-PV(D+D)Z
  Basis Set: (AUG-CC-PV(D+D)Z AUX)
    Blend: AUG-CC-PVDZ-JKFIT
  @DF-RKS Final Energy:  -343.08764177469970
    Total Energy =                       -343.0876417746996481
  @DF-RKS Final Energy:  -343.08767877500998
    Total Energy =                       -343.0876787750099766
  @DF-RKS Final Energy:  -343.08763660978082
    Total Energy =                       -343.0876366097808159
  @DF-RKS Final Energy:  -343.08768255775828
    Total Energy =                       -343.0876825577582849
  @DF-RKS Final Energy:  -343.08763663613462
    Total Energy =                       -343.0876366361345617
  @DF-RKS Final Energy:  -343.08768253162754
    Total Energy =                       -343.0876825316275358
  @DF-RKS Final Energy:  -343.08778071672208
    Total Energy =                       -343.0877807167220794
  @DF-RKS Final Energy:  -343.08777866574769
    Total Energy =                       -343.0877786657476349
  @DF-RKS Final Energy:  -343.08777865116195
    Total Energy =                       -343.0877786511620684
  @DF-RKS Final Energy:  -343.08778020633099
    Total Energy =                       -343.0877802063309332
  @DF-RKS Final Energy:  -343.08777897275650
    Total Energy =                       -343.0877789727564391
  @DF-RKS Final Energy:  -343.08778112887029
    Total Energy =                       -343.0877811288702333
  @DF-RKS Final Energy:  -343.08777673670954
    Total Energy =                       -343.0877767367095430
  @DF-RKS Final Energy:  -343.08778113235184
    Total Energy =                       -343.0877811323518358
  @DF-RKS Final Energy:  -343.08777673364557
    Total Energy =                       -343.0877767336455690
  @DF-RKS Final Energy:  -343.08778212480894
    Total Energy =                       -343.0877821248089390
  @DF-RKS Final Energy:  -343.08778006324070
    Total Energy =                       -343.0877800632407002
  **** Optimization is complete! (in 3 steps) ****
    Final optimized geometry and variables:
  @DF-RKS Final Energy:  -343.08778039344725
    Total Energy =                       -343.0877803934472468
  @DF-RKS Final Energy:  -343.08778028179557
    Total Energy =                       -343.0877802817955740
  @DF-RKS Final Energy:  -343.08778039335800
    Total Energy =                       -343.0877803933580026
  @DF-RKS Final Energy:  -343.08778028105183
    Total Energy =                       -343.0877802810518915
  @DF-RKS Final Energy:  -343.08777901602690
    Total Energy =                       -343.0877790160268432
  @DF-RKS Final Energy:  -343.08777883938774
    Total Energy =                       -343.0877788393877950
  @DF-RKS Final Energy:  -343.08777672529385
    Total Energy =                       -343.0877767252938497
  @DF-RKS Final Energy:  -343.08777680068778
    Total Energy =                       -343.0877768006877773
  @DF-RKS Final Energy:  -343.08777776722548
    Total Energy =                       -343.0877777672255888
  @DF-RKS Final Energy:  -343.08777769164868
    Total Energy =                       -343.0877776916486255
  @DF-RKS Final Energy:  -343.08777972350214
    Total Energy =                       -343.0877797235021944
  @DF-RKS Final Energy:  -343.08777984334932
    Total Energy =                       -343.0877798433492671
  @DF-RKS Final Energy:  -343.08777776596207
    Total Energy =                       -343.0877777659620733
  @DF-RKS Final Energy:  -343.08777768904918
    Total Energy =                       -343.0877776890491191
  @DF-RKS Final Energy:  -343.08777766007262
    Total Energy =                       -343.0877776600726747
  @DF-RKS Final Energy:  -343.08777787581721
    Total Energy =                       -343.0877778758171530
  Basis Set: AUG-CC-PV(D+D)Z
    Blend: AUG-CC-PV(D+D)Z
  Basis Set: (AUG-CC-PV(D+D)Z AUX)
    Blend: AUG-CC-PVDZ-JKFIT
  @DF-RKS Final Energy:  -343.08778005375103
    Total Energy =                       -343.0877800537510325
  Basis Set: AUG-CC-PV(D+D)Z
    Blend: AUG-CC-PV(D+D)Z
  Basis Set: (AUG-CC-PV(D+D)Z AUX)
    Blend: AUG-CC-PVDZ-JKFIT
  @DF-RKS Final Energy:  -343.08778010996963
    Total Energy =                       -343.0877801099696285
  Multiplicity = 1
  Basis Set: AUG-CC-PV(D+D)Z
    Blend: AUG-CC-PV(D+D)Z
  Basis Set: (AUG-CC-PV(D+D)Z AUX)
    Blend: AUG-CC-PVDZ-JKFIT
  @DF-RKS Final Energy:  -343.08778016594863
    Total Energy =                       -343.0877801659486295
    Molecular point group: c1

    Geometry (in Angstrom), charge = 0, multiplicity = 1:

       Center              X                  Y                   Z               Mass
    ------------   -----------------  -----------------  -----------------  -----------------
         P            0.000012426052     0.068283096612    -0.000107297594    30.973761998420
         H            0.598479464284    -0.700716841072     1.039581554817     1.007825032230
         H            0.601115053107    -0.698280435484    -1.038904762460     1.007825032230
         H           -1.199976410644    -0.699565782854     0.002620813917     1.007825032230

  Charge       = 0
  Multiplicity = 1
  Basis Set: AUG-CC-PV(D+D)Z
    Blend: AUG-CC-PV(D+D)Z
  Basis Set: (AUG-CC-PV(D+D)Z AUX)
    Blend: AUG-CC-PVDZ-JKFIT

    Orbital Energies [Eh]
    ---------------------

    Doubly Occupied:

       1A    -77.095767     2A     -6.663602     3A     -4.817555
       4A     -4.817554     5A     -4.813001     6A     -0.771872
       7A     -0.487374     8A     -0.486702     9A     -0.374569

  @DF-RKS Final Energy:  -343.08778016582653

   => Energetics <=

    Nuclear Repulsion Energy =             17.4798949498886849
    One-Electron Energy =                -508.2751978353167033
    Two-Electron Energy =                 165.6508217589610865
    DFT Exchange-Correlation Energy =     -18.0187215264660772
    Empirical Dispersion Energy =           0.0000000000000000
    VV10 Nonlocal Energy =                  0.0754224871064805
    Total Energy =                       -343.0877801658265867

  Dipole Moment: [D]
     X:     0.0002      Y:    -0.6957      Z:    -0.0026     Total:     0.6957

  Vibration                       7                   8                   9
  Freq [cm^-1]                1012.4580           1136.5052           1438.5801
  Irrep                           Ap                  Ap                 App
  Reduced mass [u]              1.0748              1.0256              1.0326
  Force const [mDyne/A]         0.6491              0.7805              1.2591

  Vibration                       10                  11                  12
  Freq [cm^-1]                2443.2365           2454.1659           2562.6044
  Irrep                           Ap                  Ap                 App
  Reduced mass [u]              1.0323              1.0411              1.0340
  Force const [mDyne/A]         3.6308              3.6946              4.0006

  ==> Thermochemistry Components <==

  Entropy, S
    Electronic S            0.000 [cal/(mol K)]        0.000 [J/(mol K)]       0.00000000 [mEh/K] (multiplicity = 1)
    Translational S        36.502 [cal/(mol K)]      152.724 [J/(mol K)]       0.05816968 [mEh/K] (mol. weight = 33.9972 [u], P = 101325.00 [Pa])
    Rotational S           15.712 [cal/(mol K)]       65.738 [J/(mol K)]       0.02503832 [mEh/K] (symmetry no. = 1)
    Vibrational S           0.158 [cal/(mol K)]        0.663 [J/(mol K)]       0.00025243 [mEh/K]
  Total S                  52.372 [cal/(mol K)]      219.125 [J/(mol K)]       0.08346044 [mEh/K]
  Correction S              0.000 [cal/(mol K)]        0.000 [J/(mol K)]       0.00000000 [mEh/K]

  Constant volume heat capacity, Cv
    Electronic Cv           0.000 [cal/(mol K)]        0.000 [J/(mol K)]       0.00000000 [mEh/K]
    Translational Cv        2.981 [cal/(mol K)]       12.472 [J/(mol K)]       0.00475022 [mEh/K]
    Rotational Cv           2.981 [cal/(mol K)]       12.472 [J/(mol K)]       0.00475022 [mEh/K]
    Vibrational Cv          0.712 [cal/(mol K)]        2.979 [J/(mol K)]       0.00113474 [mEh/K]
  Total Cv                  6.674 [cal/(mol K)]       27.923 [J/(mol K)]       0.01063517 [mEh/K]
  Correction Cv             0.000 [cal/(mol K)]        0.000 [J/(mol K)]       0.00000000 [mEh/K]

  Constant pressure heat capacity, Cp
    Electronic Cp           0.000 [cal/(mol K)]        0.000 [J/(mol K)]       0.00000000 [mEh/K]
    Translational Cp        4.968 [cal/(mol K)]       20.786 [J/(mol K)]       0.00791703 [mEh/K]
    Rotational Cp           2.981 [cal/(mol K)]       12.472 [J/(mol K)]       0.00475022 [mEh/K]
    Vibrational Cp          0.712 [cal/(mol K)]        2.979 [J/(mol K)]       0.00113474 [mEh/K]
  Total Cp                  8.661 [cal/(mol K)]       36.237 [J/(mol K)]       0.01380198 [mEh/K]
  Correction Cp             0.000 [cal/(mol K)]        0.000 [J/(mol K)]       0.00000000 [mEh/K]

  ==> Thermochemistry Energy Analysis <==

  Raw electronic energy, E0
  Total E0, Electronic energy at well bottom at 0 [K]                 -343.08778212 [Eh]

  Zero-point energy, ZPE_vib = Sum_i nu_i / 2
    Electronic ZPE          0.000 [kcal/mol]        0.000 [kJ/mol]       0.00000000 [Eh]
    Translational ZPE       0.000 [kcal/mol]        0.000 [kJ/mol]       0.00000000 [Eh]
    Rotational ZPE          0.000 [kcal/mol]        0.000 [kJ/mol]       0.00000000 [Eh]
    Vibrational ZPE        15.793 [kcal/mol]       66.079 [kJ/mol]       0.02516817 [Eh]        5523.775 [cm^-1]
  Correction ZPE           15.793 [kcal/mol]       66.079 [kJ/mol]       0.02516817 [Eh]        5523.775 [cm^-1]
  Total ZPE, Electronic energy at 0 [K]                               -343.06261395 [Eh]

  Thermal Energy, E (includes ZPE)
    Electronic E            0.000 [kcal/mol]        0.000 [kJ/mol]       0.00000000 [Eh]
    Translational E         0.889 [kcal/mol]        3.718 [kJ/mol]       0.00141628 [Eh]
    Rotational E            0.889 [kcal/mol]        3.718 [kJ/mol]       0.00141628 [Eh]
    Vibrational E          15.833 [kcal/mol]       66.245 [kJ/mol]       0.02523142 [Eh]
  Correction E             17.610 [kcal/mol]       73.682 [kJ/mol]       0.02806397 [Eh]
  Total E, Electronic energy at  298.15 [K]                           -343.05971815 [Eh]

  Enthalpy, H_trans = E_trans + k_B * T
    Electronic H            0.000 [kcal/mol]        0.000 [kJ/mol]       0.00000000 [Eh]
    Translational H         1.481 [kcal/mol]        6.197 [kJ/mol]       0.00236046 [Eh]
    Rotational H            0.889 [kcal/mol]        3.718 [kJ/mol]       0.00141628 [Eh]
    Vibrational H          15.833 [kcal/mol]       66.245 [kJ/mol]       0.02523142 [Eh]
  Correction H             18.203 [kcal/mol]       76.161 [kJ/mol]       0.02900816 [Eh]
  Total H, Enthalpy at  298.15 [K]                                    -343.05877397 [Eh]

  Gibbs free energy, G = H - T * S
    Electronic G            0.000 [kcal/mol]        0.000 [kJ/mol]       0.00000000 [Eh]
    Translational G        -9.402 [kcal/mol]      -39.337 [kJ/mol]      -0.01498283 [Eh]
    Rotational G           -3.796 [kcal/mol]      -15.881 [kJ/mol]      -0.00604890 [Eh]
    Vibrational G          15.786 [kcal/mol]       66.047 [kJ/mol]       0.02515615 [Eh]
  Correction G              2.588 [kcal/mol]       10.829 [kJ/mol]       0.00412443 [Eh]
  Total G, Free enthalpy at  298.15 [K]                               -343.08365770 [Eh]

*** Psi4 exiting successfully. Buy a developer a beer!
