                               Psi4 1.3.2 release

  ==> Input File <==

--------------------------------------------------------------------------
memory 144 GB

molecule {
0 1
Si 0.0000000000 0.0000000000 0.0000000000
O 0.0000000000 0.0000000000 1.5170406700
}

set dynamic_level 1
set basis aug-cc-pV(D+d)Z

optimize("wB97X-V")
frequencies("wB97X-V")
--------------------------------------------------------------------------

    Molecular point group: c2v
  Charge       = 0
  Multiplicity = 1
  Basis Set: AUG-CC-PV(D+D)Z
    Blend: AUG-CC-PV(D+D)Z
  Basis Set: (AUG-CC-PV(D+D)Z AUX)
    Blend: AUG-CC-PVDZ-JKFIT
  @DF-RKS Final Energy:  -364.65839753973125
    Total Energy =                       -364.6583975397312543
    Molecular point group: c2v
  Basis Set: AUG-CC-PV(D+D)Z
    Blend: AUG-CC-PV(D+D)Z
  Basis Set: (AUG-CC-PV(D+D)Z AUX)
    Blend: AUG-CC-PVDZ-JKFIT
  @DF-RKS Final Energy:  -364.65840071722033
    Total Energy =                       -364.6584007172203314
  Basis Set: AUG-CC-PV(D+D)Z
    Blend: AUG-CC-PV(D+D)Z
  Basis Set: (AUG-CC-PV(D+D)Z AUX)
    Blend: AUG-CC-PVDZ-JKFIT
  @DF-RKS Final Energy:  -364.65839286568149
    Total Energy =                       -364.6583928656814919
  Basis Set: AUG-CC-PV(D+D)Z
    Blend: AUG-CC-PV(D+D)Z
  Basis Set: (AUG-CC-PV(D+D)Z AUX)
    Blend: AUG-CC-PVDZ-JKFIT
  @DF-RKS Final Energy:  -364.65840259116010
    Total Energy =                       -364.6584025911600975
  @DF-RKS Final Energy:  -364.65840244061377
    Total Energy =                       -364.6584024406137132
  @DF-RKS Final Energy:  -364.65840126062363
    Total Energy =                       -364.6584012606236342
  @DF-RKS Final Energy:  -364.65840270830483
    Total Energy =                       -364.6584027083048909
  @DF-RKS Final Energy:  -364.65840197246780
    Total Energy =                       -364.6584019724676864
  @DF-RKS Final Energy:  -364.65840196579541
    Total Energy =                       -364.6584019657954059
  **** Optimization is complete! (in 3 steps) ****
    Final optimized geometry and variables:
  @DF-RKS Final Energy:  -364.65840270830500
    Total Energy =                       -364.6584027083050046
  @DF-RKS Final Energy:  -364.65840197246791
    Total Energy =                       -364.6584019724679138
  Basis Set: AUG-CC-PV(D+D)Z
    Blend: AUG-CC-PV(D+D)Z
  Basis Set: (AUG-CC-PV(D+D)Z AUX)
    Blend: AUG-CC-PVDZ-JKFIT
  @DF-RKS Final Energy:  -364.65840196579575
    Total Energy =                       -364.6584019657957469
  Basis Set: AUG-CC-PV(D+D)Z
    Blend: AUG-CC-PV(D+D)Z
  Basis Set: (AUG-CC-PV(D+D)Z AUX)
    Blend: AUG-CC-PVDZ-JKFIT
  @DF-RKS Final Energy:  -364.65840270830500
    Total Energy =                       -364.6584027083049477
  Multiplicity = 1
  Basis Set: AUG-CC-PV(D+D)Z
    Blend: AUG-CC-PV(D+D)Z
  Basis Set: (AUG-CC-PV(D+D)Z AUX)
    Blend: AUG-CC-PVDZ-JKFIT
  @DF-RKS Final Energy:  -364.65840197246803
    Total Energy =                       -364.6584019724680275
    Molecular point group: c2v

    Geometry (in Angstrom), charge = 0, multiplicity = 1:

       Center              X                  Y                   Z               Mass
    ------------   -----------------  -----------------  -----------------  -----------------
         SI           0.000000000000     0.000000000000    -0.552323076798    27.976926534650
         O            0.000000000000     0.000000000000     0.966075937914    15.994914619570

  Charge       = 0
  Multiplicity = 1
  Basis Set: AUG-CC-PV(D+D)Z
    Blend: AUG-CC-PV(D+D)Z
  Basis Set: (AUG-CC-PV(D+D)Z AUX)
    Blend: AUG-CC-PVDZ-JKFIT

    Orbital Energies [Eh]
    ---------------------

    Doubly Occupied:

       1A1   -66.197489     2A1   -19.220677     3A1    -5.435263
       1B1    -3.786692     1B2    -3.786692     4A1    -3.780505
       5A1    -1.074571     6A1    -0.552492     2B1    -0.439378
       2B2    -0.439378     7A1    -0.413929

  @DF-RKS Final Energy:  -364.65840196579552

   => Energetics <=

    Nuclear Repulsion Energy =             39.0331177910352665
    One-Electron Energy =                -582.3425624057240384
    Two-Electron Energy =                 200.3264536931579869
    DFT Exchange-Correlation Energy =     -21.7684369815204093
    Empirical Dispersion Energy =           0.0000000000000000
    VV10 Nonlocal Energy =                  0.0930259372557206
    Total Energy =                       -364.6584019657954627

  Dipole Moment: [D]
     X:     0.0000      Y:     0.0000      Z:    -3.2208     Total:     3.2208

  Vibration                       6
  Freq [cm^-1]                1250.0356
  Irrep                           A1
  Reduced mass [u]             18.9466
  Force const [mDyne/A]        17.4432

  ==> Thermochemistry Components <==

  Entropy, S
    Electronic S            0.000 [cal/(mol K)]        0.000 [J/(mol K)]       0.00000000 [mEh/K] (multiplicity = 1)
    Translational S        37.269 [cal/(mol K)]      155.933 [J/(mol K)]       0.05939177 [mEh/K] (mol. weight = 43.9718 [u], P = 101325.00 [Pa])
    Rotational S           13.246 [cal/(mol K)]       55.420 [J/(mol K)]       0.02110840 [mEh/K] (symmetry no. = 1)
    Vibrational S           0.034 [cal/(mol K)]        0.141 [J/(mol K)]       0.00005357 [mEh/K]
  Total S                  50.548 [cal/(mol K)]      211.494 [J/(mol K)]       0.08055374 [mEh/K]
  Correction S              0.000 [cal/(mol K)]        0.000 [J/(mol K)]       0.00000000 [mEh/K]

  Constant volume heat capacity, Cv
    Electronic Cv           0.000 [cal/(mol K)]        0.000 [J/(mol K)]       0.00000000 [mEh/K]
    Translational Cv        2.981 [cal/(mol K)]       12.472 [J/(mol K)]       0.00475022 [mEh/K]
    Rotational Cv           1.987 [cal/(mol K)]        8.314 [J/(mol K)]       0.00316681 [mEh/K]
    Vibrational Cv          0.174 [cal/(mol K)]        0.730 [J/(mol K)]       0.00027790 [mEh/K]
  Total Cv                  5.142 [cal/(mol K)]       21.516 [J/(mol K)]       0.00819493 [mEh/K]
  Correction Cv             0.000 [cal/(mol K)]        0.000 [J/(mol K)]       0.00000000 [mEh/K]

  Constant pressure heat capacity, Cp
    Electronic Cp           0.000 [cal/(mol K)]        0.000 [J/(mol K)]       0.00000000 [mEh/K]
    Translational Cp        4.968 [cal/(mol K)]       20.786 [J/(mol K)]       0.00791703 [mEh/K]
    Rotational Cp           1.987 [cal/(mol K)]        8.314 [J/(mol K)]       0.00316681 [mEh/K]
    Vibrational Cp          0.174 [cal/(mol K)]        0.730 [J/(mol K)]       0.00027790 [mEh/K]
  Total Cp                  7.130 [cal/(mol K)]       29.830 [J/(mol K)]       0.01136174 [mEh/K]
  Correction Cp             0.000 [cal/(mol K)]        0.000 [J/(mol K)]       0.00000000 [mEh/K]

  ==> Thermochemistry Energy Analysis <==

  Raw electronic energy, E0
  Total E0, Electronic energy at well bottom at 0 [K]                 -364.65840271 [Eh]

  Zero-point energy, ZPE_vib = Sum_i nu_i / 2
    Electronic ZPE          0.000 [kcal/mol]        0.000 [kJ/mol]       0.00000000 [Eh]
    Translational ZPE       0.000 [kcal/mol]        0.000 [kJ/mol]       0.00000000 [Eh]
    Rotational ZPE          0.000 [kcal/mol]        0.000 [kJ/mol]       0.00000000 [Eh]
    Vibrational ZPE         1.787 [kcal/mol]        7.477 [kJ/mol]       0.00284779 [Eh]         625.018 [cm^-1]
  Correction ZPE            1.787 [kcal/mol]        7.477 [kJ/mol]       0.00284779 [Eh]         625.018 [cm^-1]
  Total ZPE, Electronic energy at 0 [K]                               -364.65555492 [Eh]

  Thermal Energy, E (includes ZPE)
    Electronic E            0.000 [kcal/mol]        0.000 [kJ/mol]       0.00000000 [Eh]
    Translational E         0.889 [kcal/mol]        3.718 [kJ/mol]       0.00141628 [Eh]
    Rotational E            0.592 [kcal/mol]        2.479 [kJ/mol]       0.00094418 [Eh]
    Vibrational E           1.796 [kcal/mol]        7.513 [kJ/mol]       0.00286149 [Eh]
  Correction E              3.277 [kcal/mol]       13.710 [kJ/mol]       0.00522195 [Eh]
  Total E, Electronic energy at  298.15 [K]                           -364.65318075 [Eh]

  Enthalpy, H_trans = E_trans + k_B * T
    Electronic H            0.000 [kcal/mol]        0.000 [kJ/mol]       0.00000000 [Eh]
    Translational H         1.481 [kcal/mol]        6.197 [kJ/mol]       0.00236046 [Eh]
    Rotational H            0.592 [kcal/mol]        2.479 [kJ/mol]       0.00094418 [Eh]
    Vibrational H           1.796 [kcal/mol]        7.513 [kJ/mol]       0.00286149 [Eh]
  Correction H              3.869 [kcal/mol]       16.189 [kJ/mol]       0.00616614 [Eh]
  Total H, Enthalpy at  298.15 [K]                                    -364.65223657 [Eh]

  Gibbs free energy, G = H - T * S
    Electronic G            0.000 [kcal/mol]        0.000 [kJ/mol]       0.00000000 [Eh]
    Translational G        -9.631 [kcal/mol]      -40.294 [kJ/mol]      -0.01534720 [Eh]
    Rotational G           -3.357 [kcal/mol]      -14.045 [kJ/mol]      -0.00534928 [Eh]
    Vibrational G           1.786 [kcal/mol]        7.471 [kJ/mol]       0.00284552 [Eh]
  Correction G            -11.202 [kcal/mol]      -46.868 [kJ/mol]      -0.01785096 [Eh]
  Total G, Free enthalpy at  298.15 [K]                               -364.67625367 [Eh]

*** Psi4 exiting successfully. Buy a developer a beer!
