                               Psi4 1.3.2 release

  ==> Input File <==

--------------------------------------------------------------------------
memory 144 GB

molecule {
0 1
S 0.0000000000 0.0000000000 0.0000000000
O 0.0000000000 0.0000000000 1.4355085900
O 1.2508167239 0.0000000000 -0.7043737894
}

set dynamic_level 1
set basis aug-cc-pV(D+d)Z

optimize("wB97X-V")
frequencies("wB97X-V")
--------------------------------------------------------------------------

    Molecular point group: c2v
  Charge       = 0
  Multiplicity = 1
  Basis Set: AUG-CC-PV(D+D)Z
    Blend: AUG-CC-PV(D+D)Z
  Basis Set: (AUG-CC-PV(D+D)Z AUX)
    Blend: AUG-CC-PVDZ-JKFIT
  @DF-RKS Final Energy:  -548.52938771965898
    Total Energy =                       -548.5293877196590984
    Molecular point group: c2v
  Basis Set: AUG-CC-PV(D+D)Z
    Blend: AUG-CC-PV(D+D)Z
  Basis Set: (AUG-CC-PV(D+D)Z AUX)
    Blend: AUG-CC-PVDZ-JKFIT
  @DF-RKS Final Energy:  -548.52940565285280
    Total Energy =                       -548.5294056528528017
  Basis Set: AUG-CC-PV(D+D)Z
    Blend: AUG-CC-PV(D+D)Z
  Basis Set: (AUG-CC-PV(D+D)Z AUX)
    Blend: AUG-CC-PVDZ-JKFIT
  @DF-RKS Final Energy:  -548.52936903337206
    Total Energy =                       -548.5293690333720633
  Basis Set: AUG-CC-PV(D+D)Z
    Blend: AUG-CC-PV(D+D)Z
  Basis Set: (AUG-CC-PV(D+D)Z AUX)
    Blend: AUG-CC-PVDZ-JKFIT
  @DF-RKS Final Energy:  -548.52936749423213
    Total Energy =                       -548.5293674942321331
  @DF-RKS Final Energy:  -548.52940701502018
    Total Energy =                       -548.5294070150200696
  @DF-RKS Final Energy:  -548.52962171331592
    Total Energy =                       -548.5296217133159189
  @DF-RKS Final Energy:  -548.52962663057303
    Total Energy =                       -548.5296266305730342
  @DF-RKS Final Energy:  -548.52961605431801
    Total Energy =                       -548.5296160543178985
  @DF-RKS Final Energy:  -548.52961473390633
    Total Energy =                       -548.5296147339064419
  @DF-RKS Final Energy:  -548.52962780200914
    Total Energy =                       -548.5296278020093723
  @DF-RKS Final Energy:  -548.52964736529782
    Total Energy =                       -548.5296473652979330
  @DF-RKS Final Energy:  -548.52964740098685
    Total Energy =                       -548.5296474009867325
  @DF-RKS Final Energy:  -548.52964660377847
    Total Energy =                       -548.5296466037784739
  @DF-RKS Final Energy:  -548.52964713403890
    Total Energy =                       -548.5296471340387825
  @DF-RKS Final Energy:  -548.52964672475707
    Total Energy =                       -548.5296467247570718
  @DF-RKS Final Energy:  -548.52964767654294
    Total Energy =                       -548.5296476765428224
  @DF-RKS Final Energy:  -548.52964718522060
    Total Energy =                       -548.5296471852205968
  @DF-RKS Final Energy:  -548.52964744052224
    Total Energy =                       -548.5296474405222398
  @DF-RKS Final Energy:  -548.52964710887920
    Total Energy =                       -548.5296471088790895
  @DF-RKS Final Energy:  -548.52964737472541
    Total Energy =                       -548.5296473747253003
  **** Optimization is complete! (in 4 steps) ****
    Final optimized geometry and variables:
  @DF-RKS Final Energy:  -548.52964767735011
    Total Energy =                       -548.5296476773502263
  @DF-RKS Final Energy:  -548.52964718481917
    Total Energy =                       -548.5296471848191686
  @DF-RKS Final Energy:  -548.52964744122653
    Total Energy =                       -548.5296474412264160
  @DF-RKS Final Energy:  -548.52964710799245
    Total Energy =                       -548.5296471079925595
  @DF-RKS Final Energy:  -548.52964737500974
    Total Energy =                       -548.5296473750097448
  @DF-RKS Final Energy:  -548.52964767734989
    Total Energy =                       -548.5296476773498853
  @DF-RKS Final Energy:  -548.52964718481974
    Total Energy =                       -548.5296471848196234
  @DF-RKS Final Energy:  -548.52964744122687
    Total Energy =                       -548.5296474412267571
  @DF-RKS Final Energy:  -548.52964710799245
    Total Energy =                       -548.5296471079925595
  Basis Set: AUG-CC-PV(D+D)Z
    Blend: AUG-CC-PV(D+D)Z
  Basis Set: (AUG-CC-PV(D+D)Z AUX)
    Blend: AUG-CC-PVDZ-JKFIT
  @DF-RKS Final Energy:  -548.52964737500997
    Total Energy =                       -548.5296473750098585
  Basis Set: AUG-CC-PV(D+D)Z
    Blend: AUG-CC-PV(D+D)Z
  Basis Set: (AUG-CC-PV(D+D)Z AUX)
    Blend: AUG-CC-PVDZ-JKFIT
  @DF-RKS Final Energy:  -548.52964768037123
    Total Energy =                       -548.5296476803712267
  Multiplicity = 1
  Basis Set: AUG-CC-PV(D+D)Z
    Blend: AUG-CC-PV(D+D)Z
  Basis Set: (AUG-CC-PV(D+D)Z AUX)
    Blend: AUG-CC-PVDZ-JKFIT
  @DF-RKS Final Energy:  -548.52964715857433
    Total Energy =                       -548.5296471585743348
    Molecular point group: cs

    Geometry (in Angstrom), charge = 0, multiplicity = 1:

       Center              X                  Y                   Z               Mass
    ------------   -----------------  -----------------  -----------------  -----------------
         S            0.000000000000    -0.000305395684    -0.367539425684    31.972071174400
         O            0.000000000000     1.245202593376     0.367515576602    15.994914619570
         O            0.000000000000    -1.244592141068     0.367155220765    15.994914619570

  Charge       = 0
  Multiplicity = 1
  Basis Set: AUG-CC-PV(D+D)Z
    Blend: AUG-CC-PV(D+D)Z
  Basis Set: (AUG-CC-PV(D+D)Z AUX)
    Blend: AUG-CC-PVDZ-JKFIT

    Orbital Energies [Eh]
    ---------------------

    Doubly Occupied:

       1Ap   -89.084300     2Ap   -19.299804     3Ap   -19.299639
       4Ap    -8.227941     1App   -6.183990     5Ap    -6.183183
       6Ap    -6.177591     7Ap    -1.288423     8Ap    -1.193114
       9Ap    -0.768766    10Ap    -0.616615     2App   -0.615742
      11Ap    -0.615180     3App   -0.483166    12Ap    -0.472404
      13Ap    -0.444138

  @DF-RKS Final Energy:  -548.52964676578506

   => Energetics <=

    Nuclear Repulsion Energy =            107.3128488225299435
    One-Electron Energy =                -968.2942349037894019
    Two-Electron Energy =                 343.9805851665670389
    DFT Exchange-Correlation Energy =     -31.6614872461238583
    Empirical Dispersion Energy =           0.0000000000000000
    VV10 Nonlocal Energy =                  0.1326413950311501
    Total Energy =                       -548.5296467657851736

  Dipole Moment: [D]
     X:     0.0000      Y:    -0.0063      Z:    -1.7522     Total:     1.7523

  Vibration                       7                   8                   9
  Freq [cm^-1]                 517.3088           1193.2883           1388.1713
  Irrep                           A1                  A1                  B2
  Reduced mass [u]             18.6270             17.9441             20.3202
  Force const [mDyne/A]         2.9369             15.0544             23.0708

  ==> Thermochemistry Components <==

  Entropy, S
    Electronic S            0.000 [cal/(mol K)]        0.000 [J/(mol K)]       0.00000000 [mEh/K] (multiplicity = 1)
    Translational S        38.386 [cal/(mol K)]      160.607 [J/(mol K)]       0.06117186 [mEh/K] (mol. weight = 63.9619 [u], P = 101325.00 [Pa])
    Rotational S           20.278 [cal/(mol K)]       84.845 [J/(mol K)]       0.03231562 [mEh/K] (symmetry no. = 2)
    Vibrational S           0.678 [cal/(mol K)]        2.835 [J/(mol K)]       0.00107985 [mEh/K]
  Total S                  59.342 [cal/(mol K)]      248.287 [J/(mol K)]       0.09456733 [mEh/K]
  Correction S              0.000 [cal/(mol K)]        0.000 [J/(mol K)]       0.00000000 [mEh/K]

  Constant volume heat capacity, Cv
    Electronic Cv           0.000 [cal/(mol K)]        0.000 [J/(mol K)]       0.00000000 [mEh/K]
    Translational Cv        2.981 [cal/(mol K)]       12.472 [J/(mol K)]       0.00475022 [mEh/K]
    Rotational Cv           2.981 [cal/(mol K)]       12.472 [J/(mol K)]       0.00475022 [mEh/K]
    Vibrational Cv          1.531 [cal/(mol K)]        6.406 [J/(mol K)]       0.00243997 [mEh/K]
  Total Cv                  7.493 [cal/(mol K)]       31.350 [J/(mol K)]       0.01194040 [mEh/K]
  Correction Cv             0.000 [cal/(mol K)]        0.000 [J/(mol K)]       0.00000000 [mEh/K]

  Constant pressure heat capacity, Cp
    Electronic Cp           0.000 [cal/(mol K)]        0.000 [J/(mol K)]       0.00000000 [mEh/K]
    Translational Cp        4.968 [cal/(mol K)]       20.786 [J/(mol K)]       0.00791703 [mEh/K]
    Rotational Cp           2.981 [cal/(mol K)]       12.472 [J/(mol K)]       0.00475022 [mEh/K]
    Vibrational Cp          1.531 [cal/(mol K)]        6.406 [J/(mol K)]       0.00243997 [mEh/K]
  Total Cp                  9.480 [cal/(mol K)]       39.664 [J/(mol K)]       0.01510721 [mEh/K]
  Correction Cp             0.000 [cal/(mol K)]        0.000 [J/(mol K)]       0.00000000 [mEh/K]

  ==> Thermochemistry Energy Analysis <==

  Raw electronic energy, E0
  Total E0, Electronic energy at well bottom at 0 [K]                 -548.52964768 [Eh]

  Zero-point energy, ZPE_vib = Sum_i nu_i / 2
    Electronic ZPE          0.000 [kcal/mol]        0.000 [kJ/mol]       0.00000000 [Eh]
    Translational ZPE       0.000 [kcal/mol]        0.000 [kJ/mol]       0.00000000 [Eh]
    Rotational ZPE          0.000 [kcal/mol]        0.000 [kJ/mol]       0.00000000 [Eh]
    Vibrational ZPE         4.430 [kcal/mol]       18.535 [kJ/mol]       0.00705951 [Eh]        1549.384 [cm^-1]
  Correction ZPE            4.430 [kcal/mol]       18.535 [kJ/mol]       0.00705951 [Eh]        1549.384 [cm^-1]
  Total ZPE, Electronic energy at 0 [K]                               -548.52258816 [Eh]

  Thermal Energy, E (includes ZPE)
    Electronic E            0.000 [kcal/mol]        0.000 [kJ/mol]       0.00000000 [Eh]
    Translational E         0.889 [kcal/mol]        3.718 [kJ/mol]       0.00141628 [Eh]
    Rotational E            0.889 [kcal/mol]        3.718 [kJ/mol]       0.00141628 [Eh]
    Vibrational E           4.578 [kcal/mol]       19.156 [kJ/mol]       0.00729615 [Eh]
  Correction E              6.356 [kcal/mol]       26.593 [kJ/mol]       0.01012870 [Eh]
  Total E, Electronic energy at  298.15 [K]                           -548.51951898 [Eh]

  Enthalpy, H_trans = E_trans + k_B * T
    Electronic H            0.000 [kcal/mol]        0.000 [kJ/mol]       0.00000000 [Eh]
    Translational H         1.481 [kcal/mol]        6.197 [kJ/mol]       0.00236046 [Eh]
    Rotational H            0.889 [kcal/mol]        3.718 [kJ/mol]       0.00141628 [Eh]
    Vibrational H           4.578 [kcal/mol]       19.156 [kJ/mol]       0.00729615 [Eh]
  Correction H              6.948 [kcal/mol]       29.072 [kJ/mol]       0.01107288 [Eh]
  Total H, Enthalpy at  298.15 [K]                                    -548.51857479 [Eh]

  Gibbs free energy, G = H - T * S
    Electronic G            0.000 [kcal/mol]        0.000 [kJ/mol]       0.00000000 [Eh]
    Translational G        -9.964 [kcal/mol]      -41.687 [kJ/mol]      -0.01587793 [Eh]
    Rotational G           -5.157 [kcal/mol]      -21.578 [kJ/mol]      -0.00821863 [Eh]
    Vibrational G           4.376 [kcal/mol]       18.311 [kJ/mol]       0.00697419 [Eh]
  Correction G            -10.744 [kcal/mol]      -44.955 [kJ/mol]      -0.01712237 [Eh]
  Total G, Free enthalpy at  298.15 [K]                               -548.54677004 [Eh]

*** Psi4 exiting successfully. Buy a developer a beer!
