                               Psi4 1.3.2 release

  ==> Input File <==

--------------------------------------------------------------------------
memory 144 GB

molecule {
0 1
C -0.0479167327 0.6682939561 0.0000000000
H -1.0907101856 0.9776732069 0.0000000000
H 0.4344161461 1.0815239129 0.8898543791
H 0.4344161461 1.0815239129 -0.8898543791
O -0.0410920225 -0.7509554452 0.0000000000
H 0.8712936485 -1.0420305436 0.0000000000
}

set dynamic_level 1
set basis aug-cc-pV(D+d)Z

optimize("wB97X-V")
frequencies("wB97X-V")
--------------------------------------------------------------------------

    Molecular point group: cs
  Charge       = 0
  Multiplicity = 1
  Basis Set: AUG-CC-PV(D+D)Z
    Blend: AUG-CC-PV(D+D)Z
  Basis Set: (AUG-CC-PV(D+D)Z AUX)
    Blend: AUG-CC-PVDZ-JKFIT
  @DF-RKS Final Energy:  -115.69921417058420
    Total Energy =                       -115.6992141705841988
    Molecular point group: cs
  Basis Set: AUG-CC-PV(D+D)Z
    Blend: AUG-CC-PV(D+D)Z
  Basis Set: (AUG-CC-PV(D+D)Z AUX)
    Blend: AUG-CC-PVDZ-JKFIT
  @DF-RKS Final Energy:  -115.69921394230084
    Total Energy =                       -115.6992139423008581
  Basis Set: AUG-CC-PV(D+D)Z
    Blend: AUG-CC-PV(D+D)Z
  Basis Set: (AUG-CC-PV(D+D)Z AUX)
    Blend: AUG-CC-PVDZ-JKFIT
  @DF-RKS Final Energy:  -115.69921033947267
    Total Energy =                       -115.6992103394726712
  Basis Set: AUG-CC-PV(D+D)Z
    Blend: AUG-CC-PV(D+D)Z
  Basis Set: (AUG-CC-PV(D+D)Z AUX)
    Blend: AUG-CC-PVDZ-JKFIT
  @DF-RKS Final Energy:  -115.69921730184448
    Total Energy =                       -115.6992173018444845
  @DF-RKS Final Energy:  -115.69920938034562
    Total Energy =                       -115.6992093803456214
  @DF-RKS Final Energy:  -115.69924820663529
    Total Energy =                       -115.6992482066352750
  @DF-RKS Final Energy:  -115.69917227866797
    Total Energy =                       -115.6991722786679730
  @DF-RKS Final Energy:  -115.69921128424889
    Total Energy =                       -115.6992112842489036
  @DF-RKS Final Energy:  -115.69921476362634
    Total Energy =                       -115.6992147636263297
  @DF-RKS Final Energy:  -115.69920314311838
    Total Energy =                       -115.6992031431183818
  @DF-RKS Final Energy:  -115.69922277869212
    Total Energy =                       -115.6992227786921177
  @DF-RKS Final Energy:  -115.69919700252892
    Total Energy =                       -115.6991970025289191
  @DF-RKS Final Energy:  -115.69922921060893
    Total Energy =                       -115.6992292106089337
  @DF-RKS Final Energy:  -115.69917140241647
    Total Energy =                       -115.6991714024164679
  @DF-RKS Final Energy:  -115.69925015612070
    Total Energy =                       -115.6992501561206979
  @DF-RKS Final Energy:  -115.69923103503220
    Total Energy =                       -115.6992310350321844
  @DF-RKS Final Energy:  -115.69918255549203
    Total Energy =                       -115.6991825554920439
  @DF-RKS Final Energy:  -115.69944330709779
    Total Energy =                       -115.6994433070978090
  @DF-RKS Final Energy:  -115.69943970356462
    Total Energy =                       -115.6994397035646074
  @DF-RKS Final Energy:  -115.69944298912435
    Total Energy =                       -115.6994429891243499
  **** Optimization is complete! (in 3 steps) ****
    Final optimized geometry and variables:
  @DF-RKS Final Energy:  -115.69943936956219
    Total Energy =                       -115.6994393695621852
  @DF-RKS Final Energy:  -115.69943949768754
    Total Energy =                       -115.6994394976875355
  @DF-RKS Final Energy:  -115.69943637347174
    Total Energy =                       -115.6994363734717410
  @DF-RKS Final Energy:  -115.69943807890655
    Total Energy =                       -115.6994380789065531
  @DF-RKS Final Energy:  -115.69944569756514
    Total Energy =                       -115.6994456975651531
  @DF-RKS Final Energy:  -115.69944627653058
    Total Energy =                       -115.6994462765305798
  @DF-RKS Final Energy:  -115.69944658540143
    Total Energy =                       -115.6994465854014322
  @DF-RKS Final Energy:  -115.69944557928338
    Total Energy =                       -115.6994455792833918
  @DF-RKS Final Energy:  -115.69944300556303
    Total Energy =                       -115.6994430055630261
  @DF-RKS Final Energy:  -115.69944300497480
    Total Energy =                       -115.6994430049747962
  @DF-RKS Final Energy:  -115.69944657499872
    Total Energy =                       -115.6994465749987029
  @DF-RKS Final Energy:  -115.69944657401244
    Total Energy =                       -115.6994465740124411
  @DF-RKS Final Energy:  -115.69944713705976
    Total Energy =                       -115.6994471370597637
  @DF-RKS Final Energy:  -115.69944713593176
    Total Energy =                       -115.6994471359317629
  @DF-RKS Final Energy:  -115.69944636200546
    Total Energy =                       -115.6994463620054603
  @DF-RKS Final Energy:  -115.69944636245934
    Total Energy =                       -115.6994463624593408
  Basis Set: AUG-CC-PV(D+D)Z
    Blend: AUG-CC-PV(D+D)Z
  Basis Set: (AUG-CC-PV(D+D)Z AUX)
    Blend: AUG-CC-PVDZ-JKFIT
  @DF-RKS Final Energy:  -115.69944555564008
    Total Energy =                       -115.6994455556400823
  Basis Set: AUG-CC-PV(D+D)Z
    Blend: AUG-CC-PV(D+D)Z
  Basis Set: (AUG-CC-PV(D+D)Z AUX)
    Blend: AUG-CC-PVDZ-JKFIT
  @DF-RKS Final Energy:  -115.69944555722441
    Total Energy =                       -115.6994455572244220
  Multiplicity = 1
  Basis Set: AUG-CC-PV(D+D)Z
    Blend: AUG-CC-PV(D+D)Z
  Basis Set: (AUG-CC-PV(D+D)Z AUX)
    Blend: AUG-CC-PVDZ-JKFIT
  @DF-RKS Final Energy:  -115.69944224668083
    Total Energy =                       -115.6994422466808174
    Molecular point group: c1

    Geometry (in Angstrom), charge = 0, multiplicity = 1:

       Center              X                  Y                   Z               Mass
    ------------   -----------------  -----------------  -----------------  -----------------
         C           -0.028485106297     0.729408905169     0.000000000000    12.000000000000
         H           -1.080942787057     1.040068289610     0.000000000000     1.007825032230
         H            0.458128820881     1.140350040983     0.898257561075     1.007825032230
         H            0.460389905162     1.144166763181    -0.900315018591     1.007825032230
         O           -0.024387961832    -0.693852842079     0.000201290814    15.994914619570
         H            0.888645993804    -0.997583847942    -0.001137173775     1.007825032230

  Charge       = 0
  Multiplicity = 1
  Basis Set: AUG-CC-PV(D+D)Z
    Blend: AUG-CC-PV(D+D)Z
  Basis Set: (AUG-CC-PV(D+D)Z AUX)
    Blend: AUG-CC-PVDZ-JKFIT

    Orbital Energies [Eh]
    ---------------------

    Doubly Occupied:

       1A    -19.236596     2A    -10.327212     3A     -1.153690
       4A     -0.810814     5A     -0.621867     6A     -0.552596
       7A     -0.536347     8A     -0.446267     9A     -0.385552

  @DF-RKS Final Energy:  -115.69944224564225

   => Energetics <=

    Nuclear Repulsion Energy =             40.1561557287722692
    One-Electron Energy =                -236.4900881280183285
    Two-Electron Energy =                  91.2486705691855065
    DFT Exchange-Correlation Energy =     -10.6878140416973579
    Empirical Dispersion Energy =           0.0000000000000000
    VV10 Nonlocal Energy =                  0.0736336261156593
    Total Energy =                       -115.6994422456422598

  Dipole Moment: [D]
     X:     1.3628      Y:     0.9878      Z:     0.0006     Total:     1.6832

  Vibration                       7                   8                   9
  Freq [cm^-1]                 300.0229           1065.2739           1097.2644
  Irrep                          App                  Ap                  Ap
  Reduced mass [u]              1.0713              1.2645              3.7659
  Force const [mDyne/A]         0.0568              0.8455              2.6714

  Vibration                       10                  11                  12
  Freq [cm^-1]                1165.4766           1368.6303           1458.0006
  Irrep                          App                  Ap                  Ap
  Reduced mass [u]              1.2714              1.2947              1.1395
  Force const [mDyne/A]         1.0175              1.4288              1.4272

  Vibration                       13                  14                  15
  Freq [cm^-1]                1477.1554           1487.3566           3030.9706
  Irrep                          App                  Ap                  Ap
  Reduced mass [u]              1.0441              1.0381              1.0348
  Force const [mDyne/A]         1.3423              1.3531              5.6012

  Vibration                       16                  17                  18
  Freq [cm^-1]                3097.8090           3160.6019           3887.1669
  Irrep                          App                  Ap                  Ap
  Reduced mass [u]              1.1066              1.1006              1.0668
  Force const [mDyne/A]         6.2568              6.4775              9.4973

  ==> Thermochemistry Components <==

  Entropy, S
    Electronic S            0.000 [cal/(mol K)]        0.000 [J/(mol K)]       0.00000000 [mEh/K] (multiplicity = 1)
    Translational S        36.324 [cal/(mol K)]      151.980 [J/(mol K)]       0.05788598 [mEh/K] (mol. weight = 32.0262 [u], P = 101325.00 [Pa])
    Rotational S           19.009 [cal/(mol K)]       79.535 [J/(mol K)]       0.03029314 [mEh/K] (symmetry no. = 1)
    Vibrational S           1.659 [cal/(mol K)]        6.942 [J/(mol K)]       0.00264422 [mEh/K]
  Total S                  56.993 [cal/(mol K)]      238.457 [J/(mol K)]       0.09082333 [mEh/K]
  Correction S              0.000 [cal/(mol K)]        0.000 [J/(mol K)]       0.00000000 [mEh/K]

  Constant volume heat capacity, Cv
    Electronic Cv           0.000 [cal/(mol K)]        0.000 [J/(mol K)]       0.00000000 [mEh/K]
    Translational Cv        2.981 [cal/(mol K)]       12.472 [J/(mol K)]       0.00475022 [mEh/K]
    Rotational Cv           2.981 [cal/(mol K)]       12.472 [J/(mol K)]       0.00475022 [mEh/K]
    Vibrational Cv          2.860 [cal/(mol K)]       11.965 [J/(mol K)]       0.00455735 [mEh/K]
  Total Cv                  8.821 [cal/(mol K)]       36.909 [J/(mol K)]       0.01405779 [mEh/K]
  Correction Cv             0.000 [cal/(mol K)]        0.000 [J/(mol K)]       0.00000000 [mEh/K]

  Constant pressure heat capacity, Cp
    Electronic Cp           0.000 [cal/(mol K)]        0.000 [J/(mol K)]       0.00000000 [mEh/K]
    Translational Cp        4.968 [cal/(mol K)]       20.786 [J/(mol K)]       0.00791703 [mEh/K]
    Rotational Cp           2.981 [cal/(mol K)]       12.472 [J/(mol K)]       0.00475022 [mEh/K]
    Vibrational Cp          2.860 [cal/(mol K)]       11.965 [J/(mol K)]       0.00455735 [mEh/K]
  Total Cp                 10.809 [cal/(mol K)]       45.223 [J/(mol K)]       0.01722460 [mEh/K]
  Correction Cp             0.000 [cal/(mol K)]        0.000 [J/(mol K)]       0.00000000 [mEh/K]

  ==> Thermochemistry Energy Analysis <==

  Raw electronic energy, E0
  Total E0, Electronic energy at well bottom at 0 [K]                 -115.69944760 [Eh]

  Zero-point energy, ZPE_vib = Sum_i nu_i / 2
    Electronic ZPE          0.000 [kcal/mol]        0.000 [kJ/mol]       0.00000000 [Eh]
    Translational ZPE       0.000 [kcal/mol]        0.000 [kJ/mol]       0.00000000 [Eh]
    Rotational ZPE          0.000 [kcal/mol]        0.000 [kJ/mol]       0.00000000 [Eh]
    Vibrational ZPE        32.302 [kcal/mol]      135.152 [kJ/mol]       0.05147686 [Eh]       11297.864 [cm^-1]
  Correction ZPE           32.302 [kcal/mol]      135.152 [kJ/mol]       0.05147686 [Eh]       11297.864 [cm^-1]
  Total ZPE, Electronic energy at 0 [K]                               -115.64797074 [Eh]

  Thermal Energy, E (includes ZPE)
    Electronic E            0.000 [kcal/mol]        0.000 [kJ/mol]       0.00000000 [Eh]
    Translational E         0.889 [kcal/mol]        3.718 [kJ/mol]       0.00141628 [Eh]
    Rotational E            0.889 [kcal/mol]        3.718 [kJ/mol]       0.00141628 [Eh]
    Vibrational E          32.627 [kcal/mol]      136.513 [kJ/mol]       0.05199491 [Eh]
  Correction E             34.405 [kcal/mol]      143.949 [kJ/mol]       0.05482746 [Eh]
  Total E, Electronic energy at  298.15 [K]                           -115.64462014 [Eh]

  Enthalpy, H_trans = E_trans + k_B * T
    Electronic H            0.000 [kcal/mol]        0.000 [kJ/mol]       0.00000000 [Eh]
    Translational H         1.481 [kcal/mol]        6.197 [kJ/mol]       0.00236046 [Eh]
    Rotational H            0.889 [kcal/mol]        3.718 [kJ/mol]       0.00141628 [Eh]
    Vibrational H          32.627 [kcal/mol]      136.513 [kJ/mol]       0.05199491 [Eh]
  Correction H             34.997 [kcal/mol]      146.428 [kJ/mol]       0.05577164 [Eh]
  Total H, Enthalpy at  298.15 [K]                                    -115.64367596 [Eh]

  Gibbs free energy, G = H - T * S
    Electronic G            0.000 [kcal/mol]        0.000 [kJ/mol]       0.00000000 [Eh]
    Translational G        -9.349 [kcal/mol]      -39.115 [kJ/mol]      -0.01489824 [Eh]
    Rotational G           -4.779 [kcal/mol]      -19.995 [kJ/mol]      -0.00761562 [Eh]
    Vibrational G          32.133 [kcal/mol]      134.443 [kJ/mol]       0.05120653 [Eh]
  Correction G             18.005 [kcal/mol]       75.333 [kJ/mol]       0.02869267 [Eh]
  Total G, Free enthalpy at  298.15 [K]                               -115.67075493 [Eh]

*** Psi4 exiting successfully. Buy a developer a beer!
