                               Psi4 1.3.2 release

  ==> Input File <==

--------------------------------------------------------------------------
memory 144 GB

molecule {
0 3
S 0.0000000000 0.0000000000 0.0000000000
S 0.0000000000 0.0000000000 1.8968845900
}

set reference uks
set dynamic_level 1
set basis aug-cc-pV(D+d)Z

optimize("wB97X-V")
frequencies("wB97X-V")
--------------------------------------------------------------------------

    Molecular point group: d2h
  Charge       = 0
  Multiplicity = 3
  Basis Set: AUG-CC-PV(D+D)Z
    Blend: AUG-CC-PV(D+D)Z
  Basis Set: (AUG-CC-PV(D+D)Z AUX)
    Blend: AUG-CC-PVDZ-JKFIT
  @DF-UKS Final Energy:  -796.25307543482984
    Total Energy =                       -796.2530754348294977
    Molecular point group: d2h
  Basis Set: AUG-CC-PV(D+D)Z
    Blend: AUG-CC-PV(D+D)Z
  Basis Set: (AUG-CC-PV(D+D)Z AUX)
    Blend: AUG-CC-PVDZ-JKFIT
  @DF-UKS Final Energy:  -796.25306591175581
    Total Energy =                       -796.2530659117560390
  Basis Set: AUG-CC-PV(D+D)Z
    Blend: AUG-CC-PV(D+D)Z
  Basis Set: (AUG-CC-PV(D+D)Z AUX)
    Blend: AUG-CC-PVDZ-JKFIT
  @DF-UKS Final Energy:  -796.25308441167397
    Total Energy =                       -796.2530844116740809
  Basis Set: AUG-CC-PV(D+D)Z
    Blend: AUG-CC-PV(D+D)Z
  Basis Set: (AUG-CC-PV(D+D)Z AUX)
    Blend: AUG-CC-PVDZ-JKFIT
  @DF-UKS Final Energy:  -796.25314640503620
    Total Energy =                       -796.2531464050363184
  @DF-UKS Final Energy:  -796.25314348180234
    Total Energy =                       -796.2531434818021125
  @DF-UKS Final Energy:  -796.25314876266316
    Total Energy =                       -796.2531487626631588
  @DF-UKS Final Energy:  -796.25315253003942
    Total Energy =                       -796.2531525300395288
  @DF-UKS Final Energy:  -796.25315231227671
    Total Energy =                       -796.2531523122768249
  @DF-UKS Final Energy:  -796.25315217238779
    Total Energy =                       -796.2531521723876722
  **** Optimization is complete! (in 3 steps) ****
    Final optimized geometry and variables:
  @DF-UKS Final Energy:  -796.25315253003896
    Total Energy =                       -796.2531525300390740
  @DF-UKS Final Energy:  -796.25315231227671
    Total Energy =                       -796.2531523122768249
  Basis Set: AUG-CC-PV(D+D)Z
    Blend: AUG-CC-PV(D+D)Z
  Basis Set: (AUG-CC-PV(D+D)Z AUX)
    Blend: AUG-CC-PVDZ-JKFIT
  @DF-UKS Final Energy:  -796.25315217238767
    Total Energy =                       -796.2531521723876722
  Basis Set: AUG-CC-PV(D+D)Z
    Blend: AUG-CC-PV(D+D)Z
  Basis Set: (AUG-CC-PV(D+D)Z AUX)
    Blend: AUG-CC-PVDZ-JKFIT
  @DF-UKS Final Energy:  -796.25315253003942
    Total Energy =                       -796.2531525300394151
  Multiplicity = 3
  Basis Set: AUG-CC-PV(D+D)Z
    Blend: AUG-CC-PV(D+D)Z
  Basis Set: (AUG-CC-PV(D+D)Z AUX)
    Blend: AUG-CC-PVDZ-JKFIT
  @DF-UKS Final Energy:  -796.25315231227694
    Total Energy =                       -796.2531523122770523
    Molecular point group: d2h

    Geometry (in Angstrom), charge = 0, multiplicity = 3:

       Center              X                  Y                   Z               Mass
    ------------   -----------------  -----------------  -----------------  -----------------
         S            0.000000000000     0.000000000000    -0.942602860280    31.972071174400
         S            0.000000000000     0.000000000000     0.942602860280    31.972071174400

  Charge       = 0
  Multiplicity = 3
  Basis Set: AUG-CC-PV(D+D)Z
    Blend: AUG-CC-PV(D+D)Z
  Basis Set: (AUG-CC-PV(D+D)Z AUX)
    Blend: AUG-CC-PVDZ-JKFIT

    Orbital Energies [Eh]
    ---------------------

    Alpha Occupied:

       1B1u  -88.933645     1Ag   -88.933643     2Ag    -8.098567
       2B1u   -8.098539     3Ag    -6.052856     1B3u   -6.052116
       1B2u   -6.052116     1B2g   -6.052066     1B3g   -6.052066
       3B1u   -6.052013     4Ag    -0.981401     4B1u   -0.759396
       5Ag    -0.506943     2B3u   -0.492685     2B2u   -0.492685
       2B2g   -0.344357     2B3g   -0.344357

    Alpha Virtual:

       5B1u    0.048177     6Ag     0.095288     3B3u    0.106574
       3B2u    0.106574     7Ag     0.116074     6B1u    0.128792
       3B2g    0.138523     3B3g    0.138523     7B1u    0.239369
       8Ag     0.247205     1B1g    0.247206     4B2u    0.277287
       4B3u    0.277287     9Ag     0.367237     8B1u    0.382321
       1Au     0.382323     4B2g    0.532377     4B3g    0.532377
       9B1u    0.565259     5B3u    0.692548     5B2u    0.692548
      10B1u    0.757679    10Ag     0.775056     5B2g    0.795897
       5B3g    0.795897     6B3u    0.853350     6B2u    0.853350
      11Ag     0.870458     2B1g    0.882043    12Ag     0.882044
      11B1u    0.941165     2Au     0.941166    13Ag     0.961838
       6B3g    1.044053     6B2g    1.044053    12B1u    1.195606
      13B1u    1.615297     7B2u    4.573544     7B3u    4.573544
      14Ag     4.623729     3B1g    4.623754    14B1u    4.671966
       3Au     4.671991    15Ag     4.678242     7B3g    4.782594
       7B2g    4.782594    15B1u    4.839013

    Beta Occupied:

       1Ag   -88.928189     1B1u  -88.928189     2Ag    -8.093291
       2B1u   -8.093187     3Ag    -6.049401     3B1u   -6.048547
       1B3u   -6.041015     1B2u   -6.041015     1B2g   -6.040947
       1B3g   -6.040947     4Ag    -0.951892     4B1u   -0.691956
       5Ag    -0.481089     2B3u   -0.429507     2B2u   -0.429507

    Beta Virtual:

       2B2g   -0.058355     2B3g   -0.058355     5B1u    0.055600
       6Ag     0.097579     3B3u    0.109257     3B2u    0.109257
       7Ag     0.117367     6B1u    0.143490     3B2g    0.147809
       3B3g    0.147809     7B1u    0.244850     8Ag     0.263730
       1B1g    0.263731     4B3u    0.305850     4B2u    0.305850
       9Ag     0.378428     8B1u    0.414621     1Au     0.414623
       4B2g    0.548107     4B3g    0.548107     9B1u    0.575606
       5B3u    0.713426     5B2u    0.713426    10B1u    0.766229
      10Ag     0.789199     5B2g    0.815915     5B3g    0.815915
       6B3u    0.866870     6B2u    0.866870    11Ag     0.878245
       2B1g    0.913884    12Ag     0.913884    11B1u    0.972806
       2Au     0.972807    13Ag     0.973313     6B3g    1.063953
       6B2g    1.063953    12B1u    1.212623    13B1u    1.628924
       7B2u    4.576894     7B3u    4.576894    14Ag     4.631372
       3B1g    4.631400    14B1u    4.680283     3Au     4.680311
      15Ag     4.681137     7B3g    4.787598     7B2g    4.787598
      15B1u    4.843177

    Final Occupation by Irrep:
             Ag   B1g   B2g   B3g    Au   B1u   B2u   B3u
    DOCC [     5,    0,    1,    1,    0,    4,    2,    2 ]
    SOCC [     0,    0,    1,    1,    0,    0,    0,    0 ]

  @DF-UKS Final Energy:  -796.25315217238779

   => Energetics <=

    Nuclear Repulsion Energy =             71.8591952348550933
    One-Electron Energy =               -1242.2260609415311592
    Two-Electron Energy =                 412.7135073120852553
    DFT Exchange-Correlation Energy =     -38.7334098696419673
    Empirical Dispersion Energy =           0.0000000000000000
    VV10 Nonlocal Energy =                  0.1336160918449141
    Total Energy =                       -796.2531521723876722

  UHF NO Occupations:
  HONO-2 :    2B2u 1.9971604
  HONO-1 :    2B3g 1.0000000
  HONO-0 :    2B2g 1.0000000
  LUNO+0 :    3B2u 0.0028396
  LUNO+1 :    3B3u 0.0028396
  LUNO+2 :    5B1u 0.0007124
  LUNO+3 :    6 Ag 0.0004405

Computation Completed

Properties will be evaluated at   0.000000,   0.000000,   0.000000 [a0]

Properties computed using the SCF density matrix

  Nuclear Dipole Moment: [e a0]
     X:     0.0000      Y:     0.0000      Z:     0.0000

  Electronic Dipole Moment: [e a0]
     X:     0.0000      Y:     0.0000      Z:     0.0000

  Dipole Moment: [e a0]
     X:     0.0000      Y:     0.0000      Z:     0.0000     Total:     0.0000

  Dipole Moment: [D]
     X:     0.0000      Y:     0.0000      Z:     0.0000     Total:     0.0000

*** tstop() called on bp1-compute00115.data.bp.acrc.priv at Tue Apr 27 17:56:21 2021
Module time:
	user time   =      94.59 seconds =       1.58 minutes
	system time =       4.59 seconds =       0.08 minutes
	total time  =          4 seconds =       0.07 minutes
Total time:
	user time   =    1173.06 seconds =      19.55 minutes
	system time =      59.29 seconds =       0.99 minutes
	total time  =         52 seconds =       0.87 minutes

         ----------------------------------------------------------
                                   FINDIF
                     R. A. King and Jonathon Misiewicz
         ---------------------------------------------------------

  Computing second-derivative from energies using projected,
  symmetry-adapted, cartesian coordinates.

  3 energies passed in, including the reference geometry.
    Using 3-point formula.
    Energy without displacement: -796.2531525300
    Check energies below for precision!
    0: -1 :      -796.2531523123
    0: 1  :      -796.2531521724

-------------------------------------------------------------

  ==> Harmonic Vibrational Analysis <==

  non-mass-weighted Hessian:       Symmetric? True   Hermitian? True   Lin Dep Dim?  5 (0)
  projection of translations (True) and rotations (True) removed 5 degrees of freedom (5)
  total projector:                 Symmetric? True   Hermitian? True   Lin Dep Dim?  5 (5)
  mass-weighted Hessian:           Symmetric? True   Hermitian? True   Lin Dep Dim?  5 (0)
  pre-proj  low-frequency mode:    0.0000  [cm^-1]
  pre-proj  low-frequency mode:    0.0000  [cm^-1]
  pre-proj  low-frequency mode:    0.0000  [cm^-1]
  pre-proj  low-frequency mode:    0.0000  [cm^-1]
  pre-proj  low-frequency mode:    0.0000  [cm^-1]
  pre-proj  all modes:['0.0000' '0.0000' '0.0000' '0.0000' '0.0000' '779.8741']
  projected mass-weighted Hessian: Symmetric? True   Hermitian? True   Lin Dep Dim?  5 (5)
  post-proj low-frequency mode:    0.0000i [cm^-1] (TR)
  post-proj low-frequency mode:    0.0000  [cm^-1] (TR)
  post-proj low-frequency mode:    0.0000  [cm^-1] (TR)
  post-proj low-frequency mode:    0.0000  [cm^-1] (TR)
  post-proj low-frequency mode:    0.0000  [cm^-1] (TR)
  post-proj  all modes:['0.0000i' '0.0000' '0.0000' '0.0000' '0.0000' '779.8741']

  Vibration                       6
  Freq [cm^-1]                 779.8741
  Irrep                           Ag
  Reduced mass [u]             31.9721
  Force const [mDyne/A]        11.4570
  Turning point v=0 [a0]        0.0695
  RMS dev v=0 [a0 u^1/2]        0.2778
  Char temp [K]               1122.0653
  ----------------------------------------------------------------------------------
      1   S                0.00  0.00  0.71
      2   S                0.00  0.00 -0.71

  ==> Thermochemistry Components <==

  Entropy, S
    Electronic S            2.183 [cal/(mol K)]        9.134 [J/(mol K)]       0.00347910 [mEh/K] (multiplicity = 3)
    Translational S        38.385 [cal/(mol K)]      160.603 [J/(mol K)]       0.06117054 [mEh/K] (mol. weight = 63.9441 [u], P = 101325.00 [Pa])
    Rotational S           13.625 [cal/(mol K)]       57.007 [J/(mol K)]       0.02171274 [mEh/K] (symmetry no. = 2)
    Vibrational S           0.224 [cal/(mol K)]        0.939 [J/(mol K)]       0.00035747 [mEh/K]
  Total S                  54.418 [cal/(mol K)]      227.683 [J/(mol K)]       0.08671985 [mEh/K]
  Correction S              0.000 [cal/(mol K)]        0.000 [J/(mol K)]       0.00000000 [mEh/K]

  Constant volume heat capacity, Cv
    Electronic Cv           0.000 [cal/(mol K)]        0.000 [J/(mol K)]       0.00000000 [mEh/K]
    Translational Cv        2.981 [cal/(mol K)]       12.472 [J/(mol K)]       0.00475022 [mEh/K]
    Rotational Cv           1.987 [cal/(mol K)]        8.314 [J/(mol K)]       0.00316681 [mEh/K]
    Vibrational Cv          0.684 [cal/(mol K)]        2.864 [J/(mol K)]       0.00109080 [mEh/K]
  Total Cv                  5.652 [cal/(mol K)]       23.650 [J/(mol K)]       0.00900783 [mEh/K]
  Correction Cv             0.000 [cal/(mol K)]        0.000 [J/(mol K)]       0.00000000 [mEh/K]

  Constant pressure heat capacity, Cp
    Electronic Cp           0.000 [cal/(mol K)]        0.000 [J/(mol K)]       0.00000000 [mEh/K]
    Translational Cp        4.968 [cal/(mol K)]       20.786 [J/(mol K)]       0.00791703 [mEh/K]
    Rotational Cp           1.987 [cal/(mol K)]        8.314 [J/(mol K)]       0.00316681 [mEh/K]
    Vibrational Cp          0.684 [cal/(mol K)]        2.864 [J/(mol K)]       0.00109080 [mEh/K]
  Total Cp                  7.640 [cal/(mol K)]       31.965 [J/(mol K)]       0.01217464 [mEh/K]
  Correction Cp             0.000 [cal/(mol K)]        0.000 [J/(mol K)]       0.00000000 [mEh/K]

  ==> Thermochemistry Energy Analysis <==

  Raw electronic energy, E0
  Total E0, Electronic energy at well bottom at 0 [K]                 -796.25315253 [Eh]

  Zero-point energy, ZPE_vib = Sum_i nu_i / 2
    Electronic ZPE          0.000 [kcal/mol]        0.000 [kJ/mol]       0.00000000 [Eh]
    Translational ZPE       0.000 [kcal/mol]        0.000 [kJ/mol]       0.00000000 [Eh]
    Rotational ZPE          0.000 [kcal/mol]        0.000 [kJ/mol]       0.00000000 [Eh]
    Vibrational ZPE         1.115 [kcal/mol]        4.665 [kJ/mol]       0.00177668 [Eh]         389.937 [cm^-1]
  Correction ZPE            1.115 [kcal/mol]        4.665 [kJ/mol]       0.00177668 [Eh]         389.937 [cm^-1]
  Total ZPE, Electronic energy at 0 [K]                               -796.25137585 [Eh]

  Thermal Energy, E (includes ZPE)
    Electronic E            0.000 [kcal/mol]        0.000 [kJ/mol]       0.00000000 [Eh]
    Translational E         0.889 [kcal/mol]        3.718 [kJ/mol]       0.00141628 [Eh]
    Rotational E            0.592 [kcal/mol]        2.479 [kJ/mol]       0.00094418 [Eh]
    Vibrational E           1.168 [kcal/mol]        4.886 [kJ/mol]       0.00186110 [Eh]
  Correction E              2.649 [kcal/mol]       11.084 [kJ/mol]       0.00422156 [Eh]
  Total E, Electronic energy at  298.15 [K]                           -796.24893097 [Eh]

  Enthalpy, H_trans = E_trans + k_B * T
    Electronic H            0.000 [kcal/mol]        0.000 [kJ/mol]       0.00000000 [Eh]
    Translational H         1.481 [kcal/mol]        6.197 [kJ/mol]       0.00236046 [Eh]
    Rotational H            0.592 [kcal/mol]        2.479 [kJ/mol]       0.00094418 [Eh]
    Vibrational H           1.168 [kcal/mol]        4.886 [kJ/mol]       0.00186110 [Eh]
  Correction H              3.242 [kcal/mol]       13.563 [kJ/mol]       0.00516574 [Eh]
  Total H, Enthalpy at  298.15 [K]                                    -796.24798679 [Eh]

  Gibbs free energy, G = H - T * S
    Electronic G           -0.651 [kcal/mol]       -2.723 [kJ/mol]      -0.00103729 [Eh]
    Translational G        -9.963 [kcal/mol]      -41.686 [kJ/mol]      -0.01587754 [Eh]
    Rotational G           -3.470 [kcal/mol]      -14.518 [kJ/mol]      -0.00552947 [Eh]
    Vibrational G           1.101 [kcal/mol]        4.606 [kJ/mol]       0.00175452 [Eh]
  Correction G            -12.983 [kcal/mol]      -54.321 [kJ/mol]      -0.02068978 [Eh]
  Total G, Free enthalpy at  298.15 [K]                               -796.27384231 [Eh]

    Psi4 stopped on: Tuesday, 27 April 2021 05:56PM
    Psi4 wall time for execution: 0:00:52.13

*** Psi4 exiting successfully. Buy a developer a beer!
