                               Psi4 1.3.2 release

  ==> Input File <==

--------------------------------------------------------------------------
memory 144 GB

molecule {
0 3
S 0.0000000000 0.0000000000 0.0000000000
O 0.0000000000 0.0000000000 1.4862145500
}

set reference uks
set dynamic_level 1
set basis aug-cc-pV(D+d)Z

optimize("wB97X-V")
frequencies("wB97X-V")
--------------------------------------------------------------------------

    Molecular point group: c2v
  Charge       = 0
  Multiplicity = 3
  Basis Set: AUG-CC-PV(D+D)Z
    Blend: AUG-CC-PV(D+D)Z
  Basis Set: (AUG-CC-PV(D+D)Z AUX)
    Blend: AUG-CC-PVDZ-JKFIT
  @DF-UKS Final Energy:  -473.29019179979127
    Total Energy =                       -473.2901917997912165
    Molecular point group: c2v
  Basis Set: AUG-CC-PV(D+D)Z
    Blend: AUG-CC-PV(D+D)Z
  Basis Set: (AUG-CC-PV(D+D)Z AUX)
    Blend: AUG-CC-PVDZ-JKFIT
  @DF-UKS Final Energy:  -473.29020772532249
    Total Energy =                       -473.2902077253224320
  Basis Set: AUG-CC-PV(D+D)Z
    Blend: AUG-CC-PV(D+D)Z
  Basis Set: (AUG-CC-PV(D+D)Z AUX)
    Blend: AUG-CC-PVDZ-JKFIT
  @DF-UKS Final Energy:  -473.29017446807330
    Total Energy =                       -473.2901744680732463
  Basis Set: AUG-CC-PV(D+D)Z
    Blend: AUG-CC-PV(D+D)Z
  Basis Set: (AUG-CC-PV(D+D)Z AUX)
    Blend: AUG-CC-PVDZ-JKFIT
  @DF-UKS Final Energy:  -473.29028399104413
    Total Energy =                       -473.2902839910441912
  @DF-UKS Final Energy:  -473.29028794436272
    Total Energy =                       -473.2902879443626034
  @DF-UKS Final Energy:  -473.29027868561752
    Total Energy =                       -473.2902786856174089
  @DF-UKS Final Energy:  -473.29029195581251
    Total Energy =                       -473.2902919558125632
  @DF-UKS Final Energy:  -473.29029141708611
    Total Energy =                       -473.2902914170862232
  @DF-UKS Final Energy:  -473.29029116422601
    Total Energy =                       -473.2902911642261188
  **** Optimization is complete! (in 3 steps) ****
    Final optimized geometry and variables:
  @DF-UKS Final Energy:  -473.29029195581171
    Total Energy =                       -473.2902919558117674
  @DF-UKS Final Energy:  -473.29029141708622
    Total Energy =                       -473.2902914170862232
  Basis Set: AUG-CC-PV(D+D)Z
    Blend: AUG-CC-PV(D+D)Z
  Basis Set: (AUG-CC-PV(D+D)Z AUX)
    Blend: AUG-CC-PVDZ-JKFIT
  @DF-UKS Final Energy:  -473.29029116422589
    Total Energy =                       -473.2902911642259483
  Basis Set: AUG-CC-PV(D+D)Z
    Blend: AUG-CC-PV(D+D)Z
  Basis Set: (AUG-CC-PV(D+D)Z AUX)
    Blend: AUG-CC-PVDZ-JKFIT
  @DF-UKS Final Energy:  -473.29029195581222
    Total Energy =                       -473.2902919558122221
  Multiplicity = 3
  Basis Set: AUG-CC-PV(D+D)Z
    Blend: AUG-CC-PV(D+D)Z
  Basis Set: (AUG-CC-PV(D+D)Z AUX)
    Blend: AUG-CC-PVDZ-JKFIT
  @DF-UKS Final Energy:  -473.29029141708634
    Total Energy =                       -473.2902914170862232
    Molecular point group: c2v

    Geometry (in Angstrom), charge = 0, multiplicity = 3:

       Center              X                  Y                   Z               Mass
    ------------   -----------------  -----------------  -----------------  -----------------
         S            0.000000000000     0.000000000000    -0.498578459780    31.972071174400
         O            0.000000000000     0.000000000000     0.996603381840    15.994914619570

  Charge       = 0
  Multiplicity = 3
  Basis Set: AUG-CC-PV(D+D)Z
    Blend: AUG-CC-PV(D+D)Z
  Basis Set: (AUG-CC-PV(D+D)Z AUX)
    Blend: AUG-CC-PVDZ-JKFIT

    Orbital Energies [Eh]
    ---------------------

    Alpha Occupied:

       1A1   -88.979211     2A1   -19.313637     3A1    -8.139213
       4A1    -6.093684     1B1    -6.093412     1B2    -6.093412
       5A1    -1.227629     6A1    -0.817776     2B2    -0.574747
       2B1    -0.574747     7A1    -0.569653     3B1    -0.369188
       3B2    -0.369188

    Alpha Virtual:

       8A1     0.055027     9A1     0.088417     4B1     0.103325
       4B2     0.103325    10A1     0.158133    11A1     0.213833
       5B2     0.229697     5B1     0.229697    12A1     0.282490
       1A2     0.282490    13A1     0.365311     6B1     0.389585
       6B2     0.389585    14A1     0.559838     7B1     0.675913
       7B2     0.675913    15A1     0.694003    16A1     0.853918
       8B1     0.870270     8B2     0.870270    17A1     0.874280
       2A2     0.874281     3A2     0.926549    18A1     0.926551
      19A1     1.083613     9B2     1.138040     9B1     1.138040
      20A1     1.317805    10B2     1.374160    10B1     1.374160
      21A1     1.569903    22A1     2.620541    23A1     3.257572
       4A2     3.257573    11B2     3.346218    11B1     3.346218
      24A1     3.392547     5A2     4.606914    25A1     4.606916
      12B1     4.685601    12B2     4.685601    26A1     4.759249

    Beta Occupied:

       1A1   -88.972867     2A1   -19.295168     3A1    -8.132987
       4A1    -6.089839     1B1    -6.080279     1B2    -6.080279
       5A1    -1.186002     6A1    -0.744753     7A1    -0.534787
       2B1    -0.497542     2B2    -0.497542

    Beta Virtual:

       3B1    -0.043453     3B2    -0.043453     8A1     0.062738
       9A1     0.094254     4B1     0.113426     4B2     0.113426
      10A1     0.172128    11A1     0.218381     5B1     0.238169
       5B2     0.238169     1A2     0.310564    12A1     0.310564
      13A1     0.371896     6B1     0.416894     6B2     0.416894
      14A1     0.573574     7B2     0.698571     7B1     0.698571
      15A1     0.704942    16A1     0.860924     8B1     0.888584
       8B2     0.888584    17A1     0.909139     2A2     0.909139
       3A2     0.943680    18A1     0.943680    19A1     1.109223
       9B1     1.164054     9B2     1.164054    20A1     1.330136
      10B1     1.402230    10B2     1.402230    21A1     1.586719
      22A1     2.637625     4A2     3.311516    23A1     3.311517
      11B1     3.377183    11B2     3.377183    24A1     3.421697
       5A2     4.616905    25A1     4.616911    12B1     4.691699
      12B2     4.691699    26A1     4.764374

    Final Occupation by Irrep:
             A1    A2    B1    B2
    DOCC [     7,    0,    2,    2 ]
    SOCC [     0,    0,    1,    1 ]

  @DF-UKS Final Energy:  -473.29029116422635

   => Energetics <=

    Nuclear Repulsion Energy =             45.3019700214978798
    One-Electron Energy =                -742.5410126529576473
    Two-Electron Energy =                 249.3194837999316746
    DFT Exchange-Correlation Energy =     -25.4715805048759485
    Empirical Dispersion Energy =           0.0000000000000000
    VV10 Nonlocal Energy =                  0.1008481721777342
    Total Energy =                       -473.2902911642263462

  UHF NO Occupations:
  HONO-2 :    2 B2 1.9977772
  HONO-1 :    3 B2 1.0000000
  HONO-0 :    3 B1 1.0000000
  LUNO+0 :    4 B2 0.0022228
  LUNO+1 :    4 B1 0.0022228
  LUNO+2 :    8 A1 0.0009089
  LUNO+3 :    9 A1 0.0002431

Computation Completed

Properties will be evaluated at   0.000000,   0.000000,   0.000000 [a0]

Properties computed using the SCF density matrix

  Nuclear Dipole Moment: [e a0]
     X:     0.0000      Y:     0.0000      Z:    -0.0084

  Electronic Dipole Moment: [e a0]
     X:     0.0000      Y:     0.0000      Z:    -0.6063

  Dipole Moment: [e a0]
     X:     0.0000      Y:     0.0000      Z:    -0.6146     Total:     0.6146

  Dipole Moment: [D]
     X:     0.0000      Y:     0.0000      Z:    -1.5622     Total:     1.5622

*** tstop() called on bp1-compute00105.data.bp.acrc.priv at Tue Apr 27 17:56:33 2021
Module time:
	user time   =     113.22 seconds =       1.89 minutes
	system time =       5.56 seconds =       0.09 minutes
	total time  =          5 seconds =       0.08 minutes
Total time:
	user time   =    1311.11 seconds =      21.85 minutes
	system time =      66.35 seconds =       1.11 minutes
	total time  =         58 seconds =       0.97 minutes

         ----------------------------------------------------------
                                   FINDIF
                     R. A. King and Jonathon Misiewicz
         ---------------------------------------------------------

  Computing second-derivative from energies using projected,
  symmetry-adapted, cartesian coordinates.

  3 energies passed in, including the reference geometry.
    Using 3-point formula.
    Energy without displacement: -473.2902919558
    Check energies below for precision!
    0: -1 :      -473.2902914171
    0: 1  :      -473.2902911642

-------------------------------------------------------------

  ==> Harmonic Vibrational Analysis <==

  non-mass-weighted Hessian:       Symmetric? True   Hermitian? True   Lin Dep Dim?  5 (0)
  projection of translations (True) and rotations (True) removed 5 degrees of freedom (5)
  total projector:                 Symmetric? True   Hermitian? True   Lin Dep Dim?  5 (5)
  mass-weighted Hessian:           Symmetric? True   Hermitian? True   Lin Dep Dim?  5 (0)
  pre-proj  low-frequency mode:    0.0000i [cm^-1]
  pre-proj  low-frequency mode:    0.0000  [cm^-1]
  pre-proj  low-frequency mode:    0.0000  [cm^-1]
  pre-proj  low-frequency mode:    0.0000  [cm^-1]
  pre-proj  low-frequency mode:    0.0000  [cm^-1]
  pre-proj  all modes:['0.0000i' '0.0000' '0.0000' '0.0000' '0.0000' '1185.7988']
  projected mass-weighted Hessian: Symmetric? True   Hermitian? True   Lin Dep Dim?  5 (5)
  post-proj low-frequency mode:    0.0000  [cm^-1] (TR)
  post-proj low-frequency mode:    0.0000  [cm^-1] (TR)
  post-proj low-frequency mode:    0.0000  [cm^-1] (TR)
  post-proj low-frequency mode:    0.0000  [cm^-1] (TR)
  post-proj low-frequency mode:    0.0000  [cm^-1] (TR)
  post-proj  all modes:['0.0000' '0.0000' '0.0000' '0.0000' '0.0000' '1185.7988']

  Vibration                       6
  Freq [cm^-1]                1185.7988
  Irrep                           A1
  Reduced mass [u]             19.1932
  Force const [mDyne/A]        15.9008
  Turning point v=0 [a0]        0.0727
  RMS dev v=0 [a0 u^1/2]        0.2253
  Char temp [K]               1706.1004
  ----------------------------------------------------------------------------------
      1   S                0.00  0.00 -0.45
      2   O                0.00  0.00  0.89

  ==> Thermochemistry Components <==

  Entropy, S
    Electronic S            2.183 [cal/(mol K)]        9.134 [J/(mol K)]       0.00347910 [mEh/K] (multiplicity = 3)
    Translational S        37.528 [cal/(mol K)]      157.018 [J/(mol K)]       0.05980487 [mEh/K] (mol. weight = 47.9670 [u], P = 101325.00 [Pa])
    Rotational S           13.277 [cal/(mol K)]       55.551 [J/(mol K)]       0.02115809 [mEh/K] (symmetry no. = 1)
    Vibrational S           0.044 [cal/(mol K)]        0.183 [J/(mol K)]       0.00006987 [mEh/K]
  Total S                  53.032 [cal/(mol K)]      221.886 [J/(mol K)]       0.08451193 [mEh/K]
  Correction S              0.000 [cal/(mol K)]        0.000 [J/(mol K)]       0.00000000 [mEh/K]

  Constant volume heat capacity, Cv
    Electronic Cv           0.000 [cal/(mol K)]        0.000 [J/(mol K)]       0.00000000 [mEh/K]
    Translational Cv        2.981 [cal/(mol K)]       12.472 [J/(mol K)]       0.00475022 [mEh/K]
    Rotational Cv           1.987 [cal/(mol K)]        8.314 [J/(mol K)]       0.00316681 [mEh/K]
    Vibrational Cv          0.214 [cal/(mol K)]        0.897 [J/(mol K)]       0.00034155 [mEh/K]
  Total Cv                  5.182 [cal/(mol K)]       21.683 [J/(mol K)]       0.00825857 [mEh/K]
  Correction Cv             0.000 [cal/(mol K)]        0.000 [J/(mol K)]       0.00000000 [mEh/K]

  Constant pressure heat capacity, Cp
    Electronic Cp           0.000 [cal/(mol K)]        0.000 [J/(mol K)]       0.00000000 [mEh/K]
    Translational Cp        4.968 [cal/(mol K)]       20.786 [J/(mol K)]       0.00791703 [mEh/K]
    Rotational Cp           1.987 [cal/(mol K)]        8.314 [J/(mol K)]       0.00316681 [mEh/K]
    Vibrational Cp          0.214 [cal/(mol K)]        0.897 [J/(mol K)]       0.00034155 [mEh/K]
  Total Cp                  7.170 [cal/(mol K)]       29.997 [J/(mol K)]       0.01142538 [mEh/K]
  Correction Cp             0.000 [cal/(mol K)]        0.000 [J/(mol K)]       0.00000000 [mEh/K]

  ==> Thermochemistry Energy Analysis <==

  Raw electronic energy, E0
  Total E0, Electronic energy at well bottom at 0 [K]                 -473.29029196 [Eh]

  Zero-point energy, ZPE_vib = Sum_i nu_i / 2
    Electronic ZPE          0.000 [kcal/mol]        0.000 [kJ/mol]       0.00000000 [Eh]
    Translational ZPE       0.000 [kcal/mol]        0.000 [kJ/mol]       0.00000000 [Eh]
    Rotational ZPE          0.000 [kcal/mol]        0.000 [kJ/mol]       0.00000000 [Eh]
    Vibrational ZPE         1.695 [kcal/mol]        7.093 [kJ/mol]       0.00270145 [Eh]         592.899 [cm^-1]
  Correction ZPE            1.695 [kcal/mol]        7.093 [kJ/mol]       0.00270145 [Eh]         592.899 [cm^-1]
  Total ZPE, Electronic energy at 0 [K]                               -473.28759051 [Eh]

  Thermal Energy, E (includes ZPE)
    Electronic E            0.000 [kcal/mol]        0.000 [kJ/mol]       0.00000000 [Eh]
    Translational E         0.889 [kcal/mol]        3.718 [kJ/mol]       0.00141628 [Eh]
    Rotational E            0.592 [kcal/mol]        2.479 [kJ/mol]       0.00094418 [Eh]
    Vibrational E           1.706 [kcal/mol]        7.139 [kJ/mol]       0.00271919 [Eh]
  Correction E              3.188 [kcal/mol]       13.337 [kJ/mol]       0.00507965 [Eh]
  Total E, Electronic energy at  298.15 [K]                           -473.28521231 [Eh]

  Enthalpy, H_trans = E_trans + k_B * T
    Electronic H            0.000 [kcal/mol]        0.000 [kJ/mol]       0.00000000 [Eh]
    Translational H         1.481 [kcal/mol]        6.197 [kJ/mol]       0.00236046 [Eh]
    Rotational H            0.592 [kcal/mol]        2.479 [kJ/mol]       0.00094418 [Eh]
    Vibrational H           1.706 [kcal/mol]        7.139 [kJ/mol]       0.00271919 [Eh]
  Correction H              3.780 [kcal/mol]       15.816 [kJ/mol]       0.00602383 [Eh]
  Total H, Enthalpy at  298.15 [K]                                    -473.28426812 [Eh]

  Gibbs free energy, G = H - T * S
    Electronic G           -0.651 [kcal/mol]       -2.723 [kJ/mol]      -0.00103729 [Eh]
    Translational G        -9.708 [kcal/mol]      -40.617 [kJ/mol]      -0.01547036 [Eh]
    Rotational G           -3.366 [kcal/mol]      -14.083 [kJ/mol]      -0.00536410 [Eh]
    Vibrational G           1.693 [kcal/mol]        7.085 [kJ/mol]       0.00269835 [Eh]
  Correction G            -12.031 [kcal/mol]      -50.340 [kJ/mol]      -0.01917340 [Eh]
  Total G, Free enthalpy at  298.15 [K]                               -473.30946536 [Eh]

    Psi4 stopped on: Tuesday, 27 April 2021 05:56PM
    Psi4 wall time for execution: 0:00:57.98

*** Psi4 exiting successfully. Buy a developer a beer!
