                               Psi4 1.3.2 release

  ==> Input File <==

--------------------------------------------------------------------------
memory 144 GB

molecule {
0 1
B     0.000025702137  -0.000052552589  -0.198407020528
H    -0.399622606768  -1.029858472420   0.215550091991
H    -0.171134703482   0.990434479161   0.419174884486
H     0.570731623988   0.039476540557  -1.230190221591}

set basis aug-cc-pV(Q+d)Z
set dynamic_level 1

optimize("wB97X-V")
frequencies("wB97X-V")
--------------------------------------------------------------------------

    Molecular point group: c1
  Charge       = 0
  Multiplicity = 1
  Basis Set: AUG-CC-PV(Q+D)Z
    Blend: AUG-CC-PV(Q+D)Z
  Basis Set: (AUG-CC-PV(Q+D)Z AUX)
    Blend: AUG-CC-PVQZ-JKFIT
  @DF-RKS Final Energy:   -26.60736741913013
    Total Energy =                        -26.6073674191301315
    Molecular point group: c1
  Basis Set: AUG-CC-PV(Q+D)Z
    Blend: AUG-CC-PV(Q+D)Z
  Basis Set: (AUG-CC-PV(Q+D)Z AUX)
    Blend: AUG-CC-PVQZ-JKFIT
  @DF-RKS Final Energy:   -26.60736636333762
    Total Energy =                        -26.6073663633376185
  Basis Set: AUG-CC-PV(Q+D)Z
    Blend: AUG-CC-PV(Q+D)Z
  Basis Set: (AUG-CC-PV(Q+D)Z AUX)
    Blend: AUG-CC-PVQZ-JKFIT
  @DF-RKS Final Energy:   -26.60736643053792
    Total Energy =                        -26.6073664305379118
  Basis Set: AUG-CC-PV(Q+D)Z
    Blend: AUG-CC-PV(Q+D)Z
  Basis Set: (AUG-CC-PV(Q+D)Z AUX)
    Blend: AUG-CC-PVQZ-JKFIT
  @DF-RKS Final Energy:   -26.60736502556713
    Total Energy =                        -26.6073650255671339
  @DF-RKS Final Energy:   -26.60736530751926
    Total Energy =                        -26.6073653075192560
  @DF-RKS Final Energy:   -26.60736563302041
    Total Energy =                        -26.6073656330204109
  @DF-RKS Final Energy:   -26.60736535968656
    Total Energy =                        -26.6073653596865647
  @DF-RKS Final Energy:   -26.60739663381855
    Total Energy =                        -26.6073966338185421
  @DF-RKS Final Energy:   -26.60733332099261
    Total Energy =                        -26.6073333209926091
  @DF-RKS Final Energy:   -26.60738913759073
    Total Energy =                        -26.6073891375907330
  @DF-RKS Final Energy:   -26.60734108120844
    Total Energy =                        -26.6073410812084319
  @DF-RKS Final Energy:   -26.60740430924419
    Total Energy =                        -26.6074043092441919
  @DF-RKS Final Energy:   -26.60732508524073
    Total Energy =                        -26.6073250852407348
  @DF-RKS Final Energy:   -26.60736741867511
    Total Energy =                        -26.6073674186751177
  @DF-RKS Final Energy:   -26.60736636459272
    Total Energy =                        -26.6073663645927248
  @DF-RKS Final Energy:   -26.60736643113085
    Total Energy =                        -26.6073664311308526
  @DF-RKS Final Energy:   -26.60736502701750
    Total Energy =                        -26.6073650270175044
  @DF-RKS Final Energy:   -26.60736530704930
    Total Energy =                        -26.6073653070492995
  @DF-RKS Final Energy:   -26.60736563123200
    Total Energy =                        -26.6073656312320033
  @DF-RKS Final Energy:   -26.60736535894719
    Total Energy =                        -26.6073653589471952
  **** Optimization is complete! (in 3 steps) ****
    Final optimized geometry and variables:
  @DF-RKS Final Energy:   -26.60760626774723
    Total Energy =                        -26.6076062677472258
  @DF-RKS Final Energy:   -26.60760685425934
    Total Energy =                        -26.6076068542593376
  @DF-RKS Final Energy:   -26.60760765908267
    Total Energy =                        -26.6076076590826673
  @DF-RKS Final Energy:   -26.60760812932682
    Total Energy =                        -26.6076081293268203
  @DF-RKS Final Energy:   -26.60760538050785
    Total Energy =                        -26.6076053805078487
  @DF-RKS Final Energy:   -26.60760576582634
    Total Energy =                        -26.6076057658263494
  @DF-RKS Final Energy:   -26.60760349032808
    Total Energy =                        -26.6076034903280778
  @DF-RKS Final Energy:   -26.60760393305785
    Total Energy =                        -26.6076039330578524
  @DF-RKS Final Energy:   -26.60760440262849
    Total Energy =                        -26.6076044026284890
  @DF-RKS Final Energy:   -26.60760537573683
    Total Energy =                        -26.6076053757368349
  @DF-RKS Final Energy:   -26.60760527665468
    Total Energy =                        -26.6076052766546809
  @DF-RKS Final Energy:   -26.60760606870253
    Total Energy =                        -26.6076060687025269
  @DF-RKS Final Energy:   -26.60760314725088
    Total Energy =                        -26.6076031472508774
  @DF-RKS Final Energy:   -26.60760385351749
    Total Energy =                        -26.6076038535174924
  @DF-RKS Final Energy:   -26.60760580576357
    Total Energy =                        -26.6076058057635620
  @DF-RKS Final Energy:   -26.60760657560056
    Total Energy =                        -26.6076065756005598
  Basis Set: AUG-CC-PV(Q+D)Z
    Blend: AUG-CC-PV(Q+D)Z
  Basis Set: (AUG-CC-PV(Q+D)Z AUX)
    Blend: AUG-CC-PVQZ-JKFIT
  @DF-RKS Final Energy:   -26.60760347719973
    Total Energy =                        -26.6076034771997314
  Basis Set: AUG-CC-PV(Q+D)Z
    Blend: AUG-CC-PV(Q+D)Z
  Basis Set: (AUG-CC-PV(Q+D)Z AUX)
    Blend: AUG-CC-PVQZ-JKFIT
  @DF-RKS Final Energy:   -26.60760473845679
    Total Energy =                        -26.6076047384567858
  Multiplicity = 1
  Basis Set: AUG-CC-PV(Q+D)Z
    Blend: AUG-CC-PV(Q+D)Z
  Basis Set: (AUG-CC-PV(Q+D)Z AUX)
    Blend: AUG-CC-PVQZ-JKFIT
  @DF-RKS Final Energy:   -26.60760396204350
    Total Energy =                        -26.6076039620435019
    Molecular point group: c1

    Geometry (in Angstrom), charge = 0, multiplicity = 1:

       Center              X                  Y                   Z               Mass
    ------------   -----------------  -----------------  -----------------  -----------------
         B            0.000011230061    -0.000004213838     0.000008011243    11.009305360000
         H           -0.404116928371    -1.043059605899     0.418109531093     1.007825032230
         H           -0.173399402899     1.004126403402     0.625929740246     1.007825032230
         H            0.577393656037     0.038979233726    -1.044126784765     1.007825032230

  Charge       = 0
  Multiplicity = 1
  Basis Set: AUG-CC-PV(Q+D)Z
    Blend: AUG-CC-PV(Q+D)Z
  Basis Set: (AUG-CC-PV(Q+D)Z AUX)
    Blend: AUG-CC-PVQZ-JKFIT

    Orbital Energies [Eh]
    ---------------------

    Doubly Occupied:

       1A     -6.864586     2A     -0.636587     3A     -0.459308
       4A     -0.459293

  @DF-RKS Final Energy:   -26.60760510354161

   => Energetics <=

    Nuclear Repulsion Energy =              7.4117719942655889
    One-Electron Energy =                 -49.0544542654059512
    Two-Electron Energy =                  18.3219327853031011
    DFT Exchange-Correlation Energy =      -3.3207063225175473
    Empirical Dispersion Energy =           0.0000000000000000
    VV10 Nonlocal Energy =                  0.0338507048131970
    Total Energy =                        -26.6076051035416086

  Dipole Moment: [D]
     X:     0.0005      Y:    -0.0013      Z:    -0.0010     Total:     0.0018

  Vibration                       7                   8                   9
  Freq [cm^-1]                1150.2728           1224.7871           1248.4298
  Irrep                           A                   A                   A
  Reduced mass [u]              1.2529              1.1082              1.1110
  Force const [mDyne/A]         0.9767              0.9795              1.0202

  Vibration                       10                  11                  12
  Freq [cm^-1]                2558.3037           2703.8322           2713.1308
  Irrep                           A                   A                   A
  Reduced mass [u]              1.0084              1.1263              1.1229
  Force const [mDyne/A]         3.8884              4.8515              4.8700

  ==> Thermochemistry Components <==

  Entropy, S
    Electronic S            0.000 [cal/(mol K)]        0.000 [J/(mol K)]       0.00000000 [mEh/K] (multiplicity = 1)
    Translational S        33.864 [cal/(mol K)]      141.688 [J/(mol K)]       0.05396630 [mEh/K] (mol. weight = 14.0328 [u], P = 101325.00 [Pa])
    Rotational S           14.569 [cal/(mol K)]       60.957 [J/(mol K)]       0.02321736 [mEh/K] (symmetry no. = 1)
    Vibrational S           0.122 [cal/(mol K)]        0.511 [J/(mol K)]       0.00019464 [mEh/K]
  Total S                  48.556 [cal/(mol K)]      203.157 [J/(mol K)]       0.07737830 [mEh/K]
  Correction S              0.000 [cal/(mol K)]        0.000 [J/(mol K)]       0.00000000 [mEh/K]

  Constant volume heat capacity, Cv
    Electronic Cv           0.000 [cal/(mol K)]        0.000 [J/(mol K)]       0.00000000 [mEh/K]
    Translational Cv        2.981 [cal/(mol K)]       12.472 [J/(mol K)]       0.00475022 [mEh/K]
    Rotational Cv           2.981 [cal/(mol K)]       12.472 [J/(mol K)]       0.00475022 [mEh/K]
    Vibrational Cv          0.607 [cal/(mol K)]        2.539 [J/(mol K)]       0.00096723 [mEh/K]
  Total Cv                  6.569 [cal/(mol K)]       27.483 [J/(mol K)]       0.01046767 [mEh/K]
  Correction Cv             0.000 [cal/(mol K)]        0.000 [J/(mol K)]       0.00000000 [mEh/K]

  Constant pressure heat capacity, Cp
    Electronic Cp           0.000 [cal/(mol K)]        0.000 [J/(mol K)]       0.00000000 [mEh/K]
    Translational Cp        4.968 [cal/(mol K)]       20.786 [J/(mol K)]       0.00791703 [mEh/K]
    Rotational Cp           2.981 [cal/(mol K)]       12.472 [J/(mol K)]       0.00475022 [mEh/K]
    Vibrational Cp          0.607 [cal/(mol K)]        2.539 [J/(mol K)]       0.00096723 [mEh/K]
  Total Cp                  8.556 [cal/(mol K)]       35.797 [J/(mol K)]       0.01363448 [mEh/K]
  Correction Cp             0.000 [cal/(mol K)]        0.000 [J/(mol K)]       0.00000000 [mEh/K]

  ==> Thermochemistry Energy Analysis <==

  Raw electronic energy, E0
  Total E0, Electronic energy at well bottom at 0 [K]                  -26.60760992 [Eh]

  Zero-point energy, ZPE_vib = Sum_i nu_i / 2
    Electronic ZPE          0.000 [kcal/mol]        0.000 [kJ/mol]       0.00000000 [Eh]
    Translational ZPE       0.000 [kcal/mol]        0.000 [kJ/mol]       0.00000000 [Eh]
    Rotational ZPE          0.000 [kcal/mol]        0.000 [kJ/mol]       0.00000000 [Eh]
    Vibrational ZPE        16.581 [kcal/mol]       69.376 [kJ/mol]       0.02642391 [Eh]        5799.378 [cm^-1]
  Correction ZPE           16.581 [kcal/mol]       69.376 [kJ/mol]       0.02642391 [Eh]        5799.378 [cm^-1]
  Total ZPE, Electronic energy at 0 [K]                                -26.58118601 [Eh]

  Thermal Energy, E (includes ZPE)
    Electronic E            0.000 [kcal/mol]        0.000 [kJ/mol]       0.00000000 [Eh]
    Translational E         0.889 [kcal/mol]        3.718 [kJ/mol]       0.00141628 [Eh]
    Rotational E            0.889 [kcal/mol]        3.718 [kJ/mol]       0.00141628 [Eh]
    Vibrational E          16.612 [kcal/mol]       69.506 [kJ/mol]       0.02647341 [Eh]
  Correction E             18.390 [kcal/mol]       76.943 [kJ/mol]       0.02930597 [Eh]
  Total E, Electronic energy at  298.15 [K]                            -26.57830396 [Eh]

  Enthalpy, H_trans = E_trans + k_B * T
    Electronic H            0.000 [kcal/mol]        0.000 [kJ/mol]       0.00000000 [Eh]
    Translational H         1.481 [kcal/mol]        6.197 [kJ/mol]       0.00236046 [Eh]
    Rotational H            0.889 [kcal/mol]        3.718 [kJ/mol]       0.00141628 [Eh]
    Vibrational H          16.612 [kcal/mol]       69.506 [kJ/mol]       0.02647341 [Eh]
  Correction H             18.982 [kcal/mol]       79.422 [kJ/mol]       0.03025015 [Eh]
  Total H, Enthalpy at  298.15 [K]                                     -26.57735978 [Eh]

  Gibbs free energy, G = H - T * S
    Electronic G            0.000 [kcal/mol]        0.000 [kJ/mol]       0.00000000 [Eh]
    Translational G        -8.615 [kcal/mol]      -36.047 [kJ/mol]      -0.01372959 [Eh]
    Rotational G           -3.455 [kcal/mol]      -14.456 [kJ/mol]      -0.00550598 [Eh]
    Vibrational G          16.576 [kcal/mol]       69.354 [kJ/mol]       0.02641538 [Eh]
  Correction G              4.505 [kcal/mol]       18.851 [kJ/mol]       0.00717981 [Eh]
  Total G, Free enthalpy at  298.15 [K]                                -26.60043012 [Eh]

*** Psi4 exiting successfully. Buy a developer a beer!
