                               Psi4 1.3.2 release

  ==> Input File <==

--------------------------------------------------------------------------
memory 144 GB

molecule {
0 1
B 0.0000000000 0.0000000000 0.0000000000
H 0.0000000000 0.0000000000 1.1899000000
H 1.0304836280 0.0000000000 -0.5949500000
H -1.0304836280 -0.0000000000 -0.5949500000
}

set dynamic_level 1
set basis aug-cc-pV(Q+d)Z

optimize("wB97X-V")
frequencies("wB97X-V")
--------------------------------------------------------------------------

    Molecular point group: c2v
  Charge       = 0
  Multiplicity = 1
  Basis Set: AUG-CC-PV(Q+D)Z
    Blend: AUG-CC-PV(Q+D)Z
  Basis Set: (AUG-CC-PV(Q+D)Z AUX)
    Blend: AUG-CC-PVQZ-JKFIT
  @DF-RKS Final Energy:   -26.60759684149632
    Total Energy =                        -26.6075968414963242
    Molecular point group: c2v
  Basis Set: AUG-CC-PV(Q+D)Z
    Blend: AUG-CC-PV(Q+D)Z
  Basis Set: (AUG-CC-PV(Q+D)Z AUX)
    Blend: AUG-CC-PVQZ-JKFIT
  @DF-RKS Final Energy:   -26.60759464377551
    Total Energy =                        -26.6075946437755100
  Basis Set: AUG-CC-PV(Q+D)Z
    Blend: AUG-CC-PV(Q+D)Z
  Basis Set: (AUG-CC-PV(Q+D)Z AUX)
    Blend: AUG-CC-PVQZ-JKFIT
  @DF-RKS Final Energy:   -26.60759462555226
    Total Energy =                        -26.6075946255522560
  Basis Set: AUG-CC-PV(Q+D)Z
    Blend: AUG-CC-PV(Q+D)Z
  Basis Set: (AUG-CC-PV(Q+D)Z AUX)
    Blend: AUG-CC-PVQZ-JKFIT
  @DF-RKS Final Energy:   -26.60758521147998
    Total Energy =                        -26.6075852114799787
  @DF-RKS Final Energy:   -26.60760334722950
    Total Energy =                        -26.6076033472295030
  @DF-RKS Final Energy:   -26.60758521611557
    Total Energy =                        -26.6075852161155666
  @DF-RKS Final Energy:   -26.60760333957500
    Total Energy =                        -26.6076033395750038
  @DF-RKS Final Energy:   -26.60760989423740
    Total Energy =                        -26.6076098942373953
  @DF-RKS Final Energy:   -26.60760771499939
    Total Energy =                        -26.6076077149993928
  @DF-RKS Final Energy:   -26.60760770953866
    Total Energy =                        -26.6076077095386587
  @DF-RKS Final Energy:   -26.60760731668308
    Total Energy =                        -26.6076073166830831
  @DF-RKS Final Energy:   -26.60760741212192
    Total Energy =                        -26.6076074121219186
  @DF-RKS Final Energy:   -26.60760731409885
    Total Energy =                        -26.6076073140988463
  @DF-RKS Final Energy:   -26.60760741234177
    Total Energy =                        -26.6076074123417676
  **** Optimization is complete! (in 2 steps) ****
    Final optimized geometry and variables:
  @DF-RKS Final Energy:   -26.60760989494518
    Total Energy =                        -26.6076098949451776
  @DF-RKS Final Energy:   -26.60760771337336
    Total Energy =                        -26.6076077133733584
  @DF-RKS Final Energy:   -26.60760771046361
    Total Energy =                        -26.6076077104636077
  @DF-RKS Final Energy:   -26.60760731758098
    Total Energy =                        -26.6076073175809782
  @DF-RKS Final Energy:   -26.60760741250130
    Total Energy =                        -26.6076074125012987
  @DF-RKS Final Energy:   -26.60760731458581
    Total Energy =                        -26.6076073145858096
  @DF-RKS Final Energy:   -26.60760741262425
    Total Energy =                        -26.6076074126242546
  @DF-RKS Final Energy:   -26.60760989494523
    Total Energy =                        -26.6076098949452273
  @DF-RKS Final Energy:   -26.60760771337343
    Total Energy =                        -26.6076077133734259
  @DF-RKS Final Energy:   -26.60760771046369
    Total Energy =                        -26.6076077104636894
  @DF-RKS Final Energy:   -26.60760731758090
    Total Energy =                        -26.6076073175808965
  @DF-RKS Final Energy:   -26.60760741250138
    Total Energy =                        -26.6076074125013804
  @DF-RKS Final Energy:   -26.60760731458589
    Total Energy =                        -26.6076073145858842
  @DF-RKS Final Energy:   -26.60760741262434
    Total Energy =                        -26.6076074126243398
  @DF-RKS Final Energy:   -26.60760716041978
    Total Energy =                        -26.6076071604197786
  @DF-RKS Final Energy:   -26.60760707466214
    Total Energy =                        -26.6076070746621411
  @DF-RKS Final Energy:   -26.60760331108580
    Total Energy =                        -26.6076033110858035
  @DF-RKS Final Energy:   -26.60760318493123
    Total Energy =                        -26.6076031849312251
  @DF-RKS Final Energy:   -26.60760377545267
    Total Energy =                        -26.6076037754526666
  @DF-RKS Final Energy:   -26.60760355940566
    Total Energy =                        -26.6076035594056641
  @DF-RKS Final Energy:   -26.60760771617817
    Total Energy =                        -26.6076077161781690
  Basis Set: AUG-CC-PV(Q+D)Z
    Blend: AUG-CC-PV(Q+D)Z
  Basis Set: (AUG-CC-PV(Q+D)Z AUX)
    Blend: AUG-CC-PVQZ-JKFIT
  @DF-RKS Final Energy:   -26.60760805280275
    Total Energy =                        -26.6076080528027461
  Basis Set: AUG-CC-PV(Q+D)Z
    Blend: AUG-CC-PV(Q+D)Z
  Basis Set: (AUG-CC-PV(Q+D)Z AUX)
    Blend: AUG-CC-PVQZ-JKFIT
  @DF-RKS Final Energy:   -26.60760313753595
    Total Energy =                        -26.6076031375359534
  Multiplicity = 1
  Basis Set: AUG-CC-PV(Q+D)Z
    Blend: AUG-CC-PV(Q+D)Z
  Basis Set: (AUG-CC-PV(Q+D)Z AUX)
    Blend: AUG-CC-PVQZ-JKFIT
  @DF-RKS Final Energy:   -26.60760313730697
    Total Energy =                        -26.6076031373069704
    Molecular point group: cs

    Geometry (in Angstrom), charge = 0, multiplicity = 1:

       Center              X                  Y                   Z               Mass
    ------------   -----------------  -----------------  -----------------  -----------------
         B            0.000000000000    -0.000370145531    -0.000000582725    11.009305360000
         H            0.000000000000     0.001347795691     1.192995982317     1.007825032230
         H            1.033162484787     0.001347804858    -0.596494808367     1.007825032230
         H           -1.033162484787     0.001347804858    -0.596494808367     1.007825032230

  Charge       = 0
  Multiplicity = 1
  Basis Set: AUG-CC-PV(Q+D)Z
    Blend: AUG-CC-PV(Q+D)Z
  Basis Set: (AUG-CC-PV(Q+D)Z AUX)
    Blend: AUG-CC-PVQZ-JKFIT

    Orbital Energies [Eh]
    ---------------------

    Doubly Occupied:

       1Ap    -6.864025     2Ap    -0.636842     1App   -0.459490
       3Ap    -0.459490

  @DF-RKS Final Energy:   -26.60760926528822

   => Energetics <=

    Nuclear Repulsion Energy =              7.4218436507965659
    One-Electron Energy =                 -49.0737820457723330
    Two-Electron Energy =                  18.3322379854613509
    DFT Exchange-Correlation Energy =      -3.3217608341754583
    Empirical Dispersion Energy =           0.0000000000000000
    VV10 Nonlocal Energy =                  0.0338519784016473
    Total Energy =                        -26.6076092652882252

  Dipole Moment: [D]
     X:     0.0000      Y:    -0.0037      Z:     0.0000     Total:     0.0037

  Vibration                       7                   8                   9
  Freq [cm^-1]                1153.7223           1155.7157           1210.0280
  Irrep                           B2                  B1                  A1
  Reduced mass [u]              1.2531              1.1026              1.1069
  Force const [mDyne/A]         0.9827              0.8677              0.9548

  Vibration                       10                  11                  12
  Freq [cm^-1]                2565.6164           2676.6393           2695.8498
  Irrep                           A1                  B1                  A1
  Reduced mass [u]              1.0078              1.1322              1.1277
  Force const [mDyne/A]         3.9086              4.7790              4.8286

  ==> Thermochemistry Components <==

  Entropy, S
    Electronic S            0.000 [cal/(mol K)]        0.000 [J/(mol K)]       0.00000000 [mEh/K] (multiplicity = 1)
    Translational S        33.864 [cal/(mol K)]      141.688 [J/(mol K)]       0.05396630 [mEh/K] (mol. weight = 14.0328 [u], P = 101325.00 [Pa])
    Rotational S           13.192 [cal/(mol K)]       55.196 [J/(mol K)]       0.02102312 [mEh/K] (symmetry no. = 2)
    Vibrational S           0.140 [cal/(mol K)]        0.584 [J/(mol K)]       0.00022242 [mEh/K]
  Total S                  47.196 [cal/(mol K)]      197.469 [J/(mol K)]       0.07521183 [mEh/K]
  Correction S              0.000 [cal/(mol K)]        0.000 [J/(mol K)]       0.00000000 [mEh/K]

  Constant volume heat capacity, Cv
    Electronic Cv           0.000 [cal/(mol K)]        0.000 [J/(mol K)]       0.00000000 [mEh/K]
    Translational Cv        2.981 [cal/(mol K)]       12.472 [J/(mol K)]       0.00475022 [mEh/K]
    Rotational Cv           2.981 [cal/(mol K)]       12.472 [J/(mol K)]       0.00475022 [mEh/K]
    Vibrational Cv          0.674 [cal/(mol K)]        2.820 [J/(mol K)]       0.00107408 [mEh/K]
  Total Cv                  6.636 [cal/(mol K)]       27.763 [J/(mol K)]       0.01057451 [mEh/K]
  Correction Cv             0.000 [cal/(mol K)]        0.000 [J/(mol K)]       0.00000000 [mEh/K]

  Constant pressure heat capacity, Cp
    Electronic Cp           0.000 [cal/(mol K)]        0.000 [J/(mol K)]       0.00000000 [mEh/K]
    Translational Cp        4.968 [cal/(mol K)]       20.786 [J/(mol K)]       0.00791703 [mEh/K]
    Rotational Cp           2.981 [cal/(mol K)]       12.472 [J/(mol K)]       0.00475022 [mEh/K]
    Vibrational Cp          0.674 [cal/(mol K)]        2.820 [J/(mol K)]       0.00107408 [mEh/K]
  Total Cp                  8.623 [cal/(mol K)]       36.078 [J/(mol K)]       0.01374132 [mEh/K]
  Correction Cp             0.000 [cal/(mol K)]        0.000 [J/(mol K)]       0.00000000 [mEh/K]

  ==> Thermochemistry Energy Analysis <==

  Raw electronic energy, E0
  Total E0, Electronic energy at well bottom at 0 [K]                  -26.60760989 [Eh]

  Zero-point energy, ZPE_vib = Sum_i nu_i / 2
    Electronic ZPE          0.000 [kcal/mol]        0.000 [kJ/mol]       0.00000000 [Eh]
    Translational ZPE       0.000 [kcal/mol]        0.000 [kJ/mol]       0.00000000 [Eh]
    Rotational ZPE          0.000 [kcal/mol]        0.000 [kJ/mol]       0.00000000 [Eh]
    Vibrational ZPE        16.379 [kcal/mol]       68.531 [kJ/mol]       0.02610227 [Eh]        5728.786 [cm^-1]
  Correction ZPE           16.379 [kcal/mol]       68.531 [kJ/mol]       0.02610227 [Eh]        5728.786 [cm^-1]
  Total ZPE, Electronic energy at 0 [K]                                -26.58150763 [Eh]

  Thermal Energy, E (includes ZPE)
    Electronic E            0.000 [kcal/mol]        0.000 [kJ/mol]       0.00000000 [Eh]
    Translational E         0.889 [kcal/mol]        3.718 [kJ/mol]       0.00141628 [Eh]
    Rotational E            0.889 [kcal/mol]        3.718 [kJ/mol]       0.00141628 [Eh]
    Vibrational E          16.415 [kcal/mol]       68.679 [kJ/mol]       0.02615863 [Eh]
  Correction E             18.192 [kcal/mol]       76.116 [kJ/mol]       0.02899118 [Eh]
  Total E, Electronic energy at  298.15 [K]                            -26.57861871 [Eh]

  Enthalpy, H_trans = E_trans + k_B * T
    Electronic H            0.000 [kcal/mol]        0.000 [kJ/mol]       0.00000000 [Eh]
    Translational H         1.481 [kcal/mol]        6.197 [kJ/mol]       0.00236046 [Eh]
    Rotational H            0.889 [kcal/mol]        3.718 [kJ/mol]       0.00141628 [Eh]
    Vibrational H          16.415 [kcal/mol]       68.679 [kJ/mol]       0.02615863 [Eh]
  Correction H             18.785 [kcal/mol]       78.595 [kJ/mol]       0.02993537 [Eh]
  Total H, Enthalpy at  298.15 [K]                                     -26.57767453 [Eh]

  Gibbs free energy, G = H - T * S
    Electronic G            0.000 [kcal/mol]        0.000 [kJ/mol]       0.00000000 [Eh]
    Translational G        -8.615 [kcal/mol]      -36.047 [kJ/mol]      -0.01372959 [Eh]
    Rotational G           -3.045 [kcal/mol]      -12.738 [kJ/mol]      -0.00485177 [Eh]
    Vibrational G          16.373 [kcal/mol]       68.505 [kJ/mol]       0.02609231 [Eh]
  Correction G              4.713 [kcal/mol]       19.720 [kJ/mol]       0.00751096 [Eh]
  Total G, Free enthalpy at  298.15 [K]                                -26.60009894 [Eh]

*** Psi4 exiting successfully. Buy a developer a beer!
