                               Psi4 1.3.2 release

  ==> Input File <==

--------------------------------------------------------------------------
memory 144 GB

molecule {
0 1
C 0.0000000000 0.0000000000 0.0000000000
C 0.0000000000 0.0000000000 1.2065000000
H 0.0000000000 -0.0000000000 2.2699000000
H -0.0000000000 -0.0000000000 -1.0634000000
}

set dynamic_level 1
set basis aug-cc-pV(Q+d)Z

optimize("wB97X-V")
frequencies("wB97X-V")
--------------------------------------------------------------------------

    Molecular point group: d2h
  Charge       = 0
  Multiplicity = 1
  Basis Set: AUG-CC-PV(Q+D)Z
    Blend: AUG-CC-PV(Q+D)Z
  Basis Set: (AUG-CC-PV(Q+D)Z AUX)
    Blend: AUG-CC-PVQZ-JKFIT
  @DF-RKS Final Energy:   -77.33568936400565
    Total Energy =                        -77.3356893640056455
    Molecular point group: d2h
  Basis Set: AUG-CC-PV(Q+D)Z
    Blend: AUG-CC-PV(Q+D)Z
  Basis Set: (AUG-CC-PV(Q+D)Z AUX)
    Blend: AUG-CC-PVQZ-JKFIT
  @DF-RKS Final Energy:   -77.33563531556767
    Total Energy =                        -77.3356353155676715
  Basis Set: AUG-CC-PV(Q+D)Z
    Blend: AUG-CC-PV(Q+D)Z
  Basis Set: (AUG-CC-PV(Q+D)Z AUX)
    Blend: AUG-CC-PVQZ-JKFIT
  @DF-RKS Final Energy:   -77.33573816345348
    Total Energy =                        -77.3357381634534988
  Basis Set: AUG-CC-PV(Q+D)Z
    Blend: AUG-CC-PV(Q+D)Z
  Basis Set: (AUG-CC-PV(Q+D)Z AUX)
    Blend: AUG-CC-PVQZ-JKFIT
  @DF-RKS Final Energy:   -77.33567150546664
    Total Energy =                        -77.3356715054666353
  @DF-RKS Final Energy:   -77.33569699543490
    Total Energy =                        -77.3356969954348870
  @DF-RKS Final Energy:   -77.33594162550170
    Total Energy =                        -77.3359416255017038
  @DF-RKS Final Energy:   -77.33594407683232
    Total Energy =                        -77.3359440768323196
  @DF-RKS Final Energy:   -77.33593340442999
    Total Energy =                        -77.3359334044299800
  @DF-RKS Final Energy:   -77.33593849745958
    Total Energy =                        -77.3359384974595798
  @DF-RKS Final Energy:   -77.33593444011400
    Total Energy =                        -77.3359344401140163
  @DF-RKS Final Energy:   -77.33594408940594
    Total Energy =                        -77.3359440894059418
  @DF-RKS Final Energy:   -77.33594122988883
    Total Energy =                        -77.3359412298888316
  @DF-RKS Final Energy:   -77.33594139420373
    Total Energy =                        -77.3359413942037293
  @DF-RKS Final Energy:   -77.33593900460609
    Total Energy =                        -77.3359390046060895
  @DF-RKS Final Energy:   -77.33593910217824
    Total Energy =                        -77.3359391021782443
  **** Optimization is complete! (in 3 steps) ****
    Final optimized geometry and variables:
  @DF-RKS Final Energy:   -77.33594408940711
    Total Energy =                        -77.3359440894071071
  @DF-RKS Final Energy:   -77.33594122989024
    Total Energy =                        -77.3359412298902384
  @DF-RKS Final Energy:   -77.33594139420504
    Total Energy =                        -77.3359413942050224
  @DF-RKS Final Energy:   -77.33593905279044
    Total Energy =                        -77.3359390527904367
  @DF-RKS Final Energy:   -77.33593910217817
    Total Energy =                        -77.3359391021781590
  @DF-RKS Final Energy:   -77.33594408940723
    Total Energy =                        -77.3359440894072350
  @DF-RKS Final Energy:   -77.33594122989037
    Total Energy =                        -77.3359412298903521
  @DF-RKS Final Energy:   -77.33594139420529
    Total Energy =                        -77.3359413942052925
  @DF-RKS Final Energy:   -77.33593905279058
    Total Energy =                        -77.3359390527905930
  @DF-RKS Final Energy:   -77.33593910217844
    Total Energy =                        -77.3359391021784432
  @DF-RKS Final Energy:   -77.33593330562057
    Total Energy =                        -77.3359333056205713
  @DF-RKS Final Energy:   -77.33593299684074
    Total Energy =                        -77.3359329968407252
  @DF-RKS Final Energy:   -77.33594386942247
    Total Energy =                        -77.3359438694224650
  Basis Set: AUG-CC-PV(Q+D)Z
    Blend: AUG-CC-PV(Q+D)Z
  Basis Set: (AUG-CC-PV(Q+D)Z AUX)
    Blend: AUG-CC-PVQZ-JKFIT
  @DF-RKS Final Energy:   -77.33594386745106
    Total Energy =                        -77.3359438674510642
  Basis Set: AUG-CC-PV(Q+D)Z
    Blend: AUG-CC-PV(Q+D)Z
  Basis Set: (AUG-CC-PV(Q+D)Z AUX)
    Blend: AUG-CC-PVQZ-JKFIT
  @DF-RKS Final Energy:   -77.33593862521084
    Total Energy =                        -77.3359386252108578
  Multiplicity = 1
  Basis Set: AUG-CC-PV(Q+D)Z
    Blend: AUG-CC-PV(Q+D)Z
  Basis Set: (AUG-CC-PV(Q+D)Z AUX)
    Blend: AUG-CC-PVQZ-JKFIT
  @DF-RKS Final Energy:   -77.33594388017312
    Total Energy =                        -77.3359438801731045
    Molecular point group: c2v

    Geometry (in Angstrom), charge = 0, multiplicity = 1:

       Center              X                  Y                   Z               Mass
    ------------   -----------------  -----------------  -----------------  -----------------
         C           -0.000150333491     0.000000000000    -0.597714357448    12.000000000000
         C           -0.000150333491     0.000000000000     0.597714357448    12.000000000000
         H            0.001789995126     0.000000000000     1.663262520280     1.007825032230
         H            0.001789995126     0.000000000000    -1.663262520280     1.007825032230

  Charge       = 0
  Multiplicity = 1
  Basis Set: AUG-CC-PV(Q+D)Z
    Blend: AUG-CC-PV(Q+D)Z
  Basis Set: (AUG-CC-PV(Q+D)Z AUX)
    Blend: AUG-CC-PVQZ-JKFIT

    Orbital Energies [Eh]
    ---------------------

    Doubly Occupied:

       1A1   -10.277510     1B2   -10.274838     2A1    -0.886687
       2B2    -0.685983     3A1    -0.609220     1B1    -0.400877
       4A1    -0.400877

  @DF-RKS Final Energy:   -77.33594391966204

   => Energetics <=

    Nuclear Repulsion Energy =             24.8631594668894245
    One-Electron Energy =                -152.0875128957979427
    Two-Electron Energy =                  57.7240759465579671
    DFT Exchange-Correlation Energy =      -7.8934018542089897
    Empirical Dispersion Energy =           0.0000000000000000
    VV10 Nonlocal Energy =                  0.0577354168974936
    Total Energy =                        -77.3359439196620428

  Dipole Moment: [D]
     X:     0.0040      Y:     0.0000      Z:     0.0000     Total:     0.0040

  Vibration                       6                   7                   8
  Freq [cm^-1]                 599.0292            665.0672            681.9391
  Irrep                          B3u                 B2u                 B2g
  Reduced mass [u]              1.0848              1.0848              1.5771
  Force const [mDyne/A]         0.2294              0.2827              0.4321

  Vibration                       9                   10                  11
  Freq [cm^-1]                 684.9879           2037.6283           3398.6968
  Irrep                          B3g                  Ag                 B1u
  Reduced mass [u]              1.5771              3.6392              1.0848
  Force const [mDyne/A]         0.4360              8.9025              7.3830

  Vibration                       12
  Freq [cm^-1]                3509.1836
  Irrep                           Ag
  Reduced mass [u]              1.2488
  Force const [mDyne/A]         9.0604

  ==> Thermochemistry Components <==

  Entropy, S
    Electronic S            0.000 [cal/(mol K)]        0.000 [J/(mol K)]       0.00000000 [mEh/K] (multiplicity = 1)
    Translational S        35.704 [cal/(mol K)]      149.387 [J/(mol K)]       0.05689862 [mEh/K] (mol. weight = 26.0157 [u], P = 101325.00 [Pa])
    Rotational S           10.861 [cal/(mol K)]       45.444 [J/(mol K)]       0.01730852 [mEh/K] (symmetry no. = 2)
    Vibrational S           1.455 [cal/(mol K)]        6.089 [J/(mol K)]       0.00231927 [mEh/K]
  Total S                  48.021 [cal/(mol K)]      200.920 [J/(mol K)]       0.07652640 [mEh/K]
  Correction S              0.000 [cal/(mol K)]        0.000 [J/(mol K)]       0.00000000 [mEh/K]

  Constant volume heat capacity, Cv
    Electronic Cv           0.000 [cal/(mol K)]        0.000 [J/(mol K)]       0.00000000 [mEh/K]
    Translational Cv        2.981 [cal/(mol K)]       12.472 [J/(mol K)]       0.00475022 [mEh/K]
    Rotational Cv           1.987 [cal/(mol K)]        8.314 [J/(mol K)]       0.00316681 [mEh/K]
    Vibrational Cv          3.664 [cal/(mol K)]       15.331 [J/(mol K)]       0.00583933 [mEh/K]
  Total Cv                  8.632 [cal/(mol K)]       36.117 [J/(mol K)]       0.01375636 [mEh/K]
  Correction Cv             0.000 [cal/(mol K)]        0.000 [J/(mol K)]       0.00000000 [mEh/K]

  Constant pressure heat capacity, Cp
    Electronic Cp           0.000 [cal/(mol K)]        0.000 [J/(mol K)]       0.00000000 [mEh/K]
    Translational Cp        4.968 [cal/(mol K)]       20.786 [J/(mol K)]       0.00791703 [mEh/K]
    Rotational Cp           1.987 [cal/(mol K)]        8.314 [J/(mol K)]       0.00316681 [mEh/K]
    Vibrational Cp          3.664 [cal/(mol K)]       15.331 [J/(mol K)]       0.00583933 [mEh/K]
  Total Cp                 10.619 [cal/(mol K)]       44.432 [J/(mol K)]       0.01692317 [mEh/K]
  Correction Cp             0.000 [cal/(mol K)]        0.000 [J/(mol K)]       0.00000000 [mEh/K]

  ==> Thermochemistry Energy Analysis <==

  Raw electronic energy, E0
  Total E0, Electronic energy at well bottom at 0 [K]                  -77.33594409 [Eh]

  Zero-point energy, ZPE_vib = Sum_i nu_i / 2
    Electronic ZPE          0.000 [kcal/mol]        0.000 [kJ/mol]       0.00000000 [Eh]
    Translational ZPE       0.000 [kcal/mol]        0.000 [kJ/mol]       0.00000000 [Eh]
    Rotational ZPE          0.000 [kcal/mol]        0.000 [kJ/mol]       0.00000000 [Eh]
    Vibrational ZPE        16.549 [kcal/mol]       69.243 [kJ/mol]       0.02637328 [Eh]        5788.266 [cm^-1]
  Correction ZPE           16.549 [kcal/mol]       69.243 [kJ/mol]       0.02637328 [Eh]        5788.266 [cm^-1]
  Total ZPE, Electronic energy at 0 [K]                                -77.30957081 [Eh]

  Thermal Energy, E (includes ZPE)
    Electronic E            0.000 [kcal/mol]        0.000 [kJ/mol]       0.00000000 [Eh]
    Translational E         0.889 [kcal/mol]        3.718 [kJ/mol]       0.00141628 [Eh]
    Rotational E            0.592 [kcal/mol]        2.479 [kJ/mol]       0.00094418 [Eh]
    Vibrational E          16.880 [kcal/mol]       70.628 [kJ/mol]       0.02690075 [Eh]
  Correction E             18.362 [kcal/mol]       76.825 [kJ/mol]       0.02926121 [Eh]
  Total E, Electronic energy at  298.15 [K]                            -77.30668288 [Eh]

  Enthalpy, H_trans = E_trans + k_B * T
    Electronic H            0.000 [kcal/mol]        0.000 [kJ/mol]       0.00000000 [Eh]
    Translational H         1.481 [kcal/mol]        6.197 [kJ/mol]       0.00236046 [Eh]
    Rotational H            0.592 [kcal/mol]        2.479 [kJ/mol]       0.00094418 [Eh]
    Vibrational H          16.880 [kcal/mol]       70.628 [kJ/mol]       0.02690075 [Eh]
  Correction H             18.954 [kcal/mol]       79.304 [kJ/mol]       0.03020540 [Eh]
  Total H, Enthalpy at  298.15 [K]                                     -77.30573869 [Eh]

  Gibbs free energy, G = H - T * S
    Electronic G            0.000 [kcal/mol]        0.000 [kJ/mol]       0.00000000 [Eh]
    Translational G        -9.164 [kcal/mol]      -38.342 [kJ/mol]      -0.01460386 [Eh]
    Rotational G           -2.646 [kcal/mol]      -11.070 [kJ/mol]      -0.00421635 [Eh]
    Vibrational G          16.447 [kcal/mol]       68.812 [kJ/mol]       0.02620926 [Eh]
  Correction G              4.637 [kcal/mol]       19.400 [kJ/mol]       0.00738905 [Eh]
  Total G, Free enthalpy at  298.15 [K]                                -77.32855504 [Eh]

*** Psi4 exiting successfully. Buy a developer a beer!
