                               Psi4 1.3.2 release

  ==> Input File <==

--------------------------------------------------------------------------
memory 144 GB

molecule {
0 1
C 0.0000000000 0.0000000000 0.0000000000
C 0.0000000000 0.0000000000 1.3342000000
H 0.9234041342 0.0000000000 1.8987335198
H -0.9234041342 0.0000000000 1.8987335198
H 0.9234041342 0.0000000000 -0.5645335198
H -0.9234041342 -0.0000000000 -0.5645335198
}

set dynamic_level 1
set basis aug-cc-pV(Q+d)Z

optimize("wB97X-V")
frequencies("wB97X-V")
--------------------------------------------------------------------------

    Molecular point group: d2h
  Charge       = 0
  Multiplicity = 1
  Basis Set: AUG-CC-PV(Q+D)Z
    Blend: AUG-CC-PV(Q+D)Z
  Basis Set: (AUG-CC-PV(Q+D)Z AUX)
    Blend: AUG-CC-PVQZ-JKFIT
  @DF-RKS Final Energy:   -78.59354154964852
    Total Energy =                        -78.5935415496485206
    Molecular point group: d2h
  Basis Set: AUG-CC-PV(Q+D)Z
    Blend: AUG-CC-PV(Q+D)Z
  Basis Set: (AUG-CC-PV(Q+D)Z AUX)
    Blend: AUG-CC-PVQZ-JKFIT
  @DF-RKS Final Energy:   -78.59351309215725
    Total Energy =                        -78.5935130921572664
  Basis Set: AUG-CC-PV(Q+D)Z
    Blend: AUG-CC-PV(Q+D)Z
  Basis Set: (AUG-CC-PV(Q+D)Z AUX)
    Blend: AUG-CC-PVQZ-JKFIT
  @DF-RKS Final Energy:   -78.59356717029277
    Total Energy =                        -78.5935671702927721
  Basis Set: AUG-CC-PV(Q+D)Z
    Blend: AUG-CC-PV(Q+D)Z
  Basis Set: (AUG-CC-PV(Q+D)Z AUX)
    Blend: AUG-CC-PVQZ-JKFIT
  @DF-RKS Final Energy:   -78.59352461626526
    Total Energy =                        -78.5935246162652703
  @DF-RKS Final Energy:   -78.59355114030555
    Total Energy =                        -78.5935511403055358
  @DF-RKS Final Energy:   -78.59353039232582
    Total Energy =                        -78.5935303923258033
  @DF-RKS Final Energy:   -78.59354894676275
    Total Energy =                        -78.5935489467627377
  @DF-RKS Final Energy:   -78.59366110394872
    Total Energy =                        -78.5936611039487190
  @DF-RKS Final Energy:   -78.59365996052377
    Total Energy =                        -78.5936599605237660
  @DF-RKS Final Energy:   -78.59365925075785
    Total Energy =                        -78.5936592507578524
  @DF-RKS Final Energy:   -78.59365862136183
    Total Energy =                        -78.5936586213618256
  @DF-RKS Final Energy:   -78.59365640166079
    Total Energy =                        -78.5936564016608088
  @DF-RKS Final Energy:   -78.59365561984515
    Total Energy =                        -78.5936556198451370
  @DF-RKS Final Energy:   -78.59366287816013
    Total Energy =                        -78.5936628781601314
  @DF-RKS Final Energy:   -78.59366454341199
    Total Energy =                        -78.5936645434119896
  @DF-RKS Final Energy:   -78.59366260589316
    Total Energy =                        -78.5936626058931438
  @DF-RKS Final Energy:   -78.59366340384720
    Total Energy =                        -78.5936634038472164
  @DF-RKS Final Energy:   -78.59366158385282
    Total Energy =                        -78.5936615838528212
  @DF-RKS Final Energy:   -78.59366024160163
    Total Energy =                        -78.5936602416016257
  @DF-RKS Final Energy:   -78.59366183840568
    Total Energy =                        -78.5936618384056800
  **** Optimization is complete! (in 4 steps) ****
    Final optimized geometry and variables:
  @DF-RKS Final Energy:   -78.59365837510285
    Total Energy =                        -78.5936583751028337
  @DF-RKS Final Energy:   -78.59366024309014
    Total Energy =                        -78.5936602430901274
  @DF-RKS Final Energy:   -78.59366027144850
    Total Energy =                        -78.5936602714484991
  @DF-RKS Final Energy:   -78.59365636734238
    Total Energy =                        -78.5936563673423763
  @DF-RKS Final Energy:   -78.59365625580323
    Total Energy =                        -78.5936562558032250
  @DF-RKS Final Energy:   -78.59366310634847
    Total Energy =                        -78.5936631063484725
  @DF-RKS Final Energy:   -78.59366088677825
    Total Energy =                        -78.5936608867782525
  @DF-RKS Final Energy:   -78.59365568023462
    Total Energy =                        -78.5936556802346189
  @DF-RKS Final Energy:   -78.59365568621944
    Total Energy =                        -78.5936556862194351
  @DF-RKS Final Energy:   -78.59366438921485
    Total Energy =                        -78.5936643892148368
  @DF-RKS Final Energy:   -78.59366434133324
    Total Energy =                        -78.5936643413332376
  @DF-RKS Final Energy:   -78.59366278860702
    Total Energy =                        -78.5936627886070056
  @DF-RKS Final Energy:   -78.59366119438090
    Total Energy =                        -78.5936611943809140
  @DF-RKS Final Energy:   -78.59366240054123
    Total Energy =                        -78.5936624005412341
  @DF-RKS Final Energy:   -78.59366242224475
    Total Energy =                        -78.5936624222447477
  @DF-RKS Final Energy:   -78.59366438642925
    Total Energy =                        -78.5936643864292535
  Basis Set: AUG-CC-PV(Q+D)Z
    Blend: AUG-CC-PV(Q+D)Z
  Basis Set: (AUG-CC-PV(Q+D)Z AUX)
    Blend: AUG-CC-PVQZ-JKFIT
  @DF-RKS Final Energy:   -78.59366103838721
    Total Energy =                        -78.5936610383872249
  Basis Set: AUG-CC-PV(Q+D)Z
    Blend: AUG-CC-PV(Q+D)Z
  Basis Set: (AUG-CC-PV(Q+D)Z AUX)
    Blend: AUG-CC-PVQZ-JKFIT
  @DF-RKS Final Energy:   -78.59366340227643
    Total Energy =                        -78.5936634022764480
  Multiplicity = 1
  Basis Set: AUG-CC-PV(Q+D)Z
    Blend: AUG-CC-PV(Q+D)Z
  Basis Set: (AUG-CC-PV(Q+D)Z AUX)
    Blend: AUG-CC-PVQZ-JKFIT
  @DF-RKS Final Energy:   -78.59366358912608
    Total Energy =                        -78.5936635891260806
    Molecular point group: c2v

    Geometry (in Angstrom), charge = 0, multiplicity = 1:

       Center              X                  Y                   Z               Mass
    ------------   -----------------  -----------------  -----------------  -----------------
         C           -0.000204817217     0.000000000000    -0.662195341502    12.000000000000
         C           -0.000204817217     0.000000000000     0.662195341502    12.000000000000
         H            0.925364222701     0.000000000000     1.229134644393     1.007825032230
         H           -0.922925499181     0.000000000000     1.231770238735     1.007825032230
         H            0.925364222701     0.000000000000    -1.229134644393     1.007825032230
         H           -0.922925499181     0.000000000000    -1.231770238735     1.007825032230

  Charge       = 0
  Multiplicity = 1
  Basis Set: AUG-CC-PV(Q+D)Z
    Blend: AUG-CC-PV(Q+D)Z
  Basis Set: (AUG-CC-PV(Q+D)Z AUX)
    Blend: AUG-CC-PVQZ-JKFIT

    Orbital Energies [Eh]
    ---------------------

    Doubly Occupied:

       1A1   -10.269083     1B2   -10.268123     2A1    -0.895730
       2B2    -0.701629     3A1    -0.585135     4A1    -0.529930
       3B2    -0.459305     1B1    -0.379085

  @DF-RKS Final Energy:   -78.59366359063907

   => Energetics <=

    Nuclear Repulsion Energy =             33.4673042827926110
    One-Electron Energy =                -170.4742370811229080
    Two-Electron Energy =                  66.6658963293434823
    DFT Exchange-Correlation Energy =      -8.3175377406023063
    Empirical Dispersion Energy =           0.0000000000000000
    VV10 Nonlocal Energy =                  0.0649106189500551
    Total Energy =                        -78.5936635906390677

  Dipole Moment: [D]
     X:    -0.0006      Y:     0.0000      Z:     0.0000     Total:     0.0006

  Vibration                       7                   8                   9
  Freq [cm^-1]                 834.6095           1028.7010           1031.5592
  Irrep                          B3u                 B3g                 B2u
  Reduced mass [u]              1.0418              1.5184              1.1607
  Force const [mDyne/A]         0.4276              0.9467              0.7277

  Vibration                       10                  11                  12
  Freq [cm^-1]                1076.7757           1344.1278           1440.5705
  Irrep                           Au                 B2g                  Ag
  Reduced mass [u]              1.0078              1.5188              1.1782
  Force const [mDyne/A]         0.6885              1.6167              1.4405

  Vibration                       13                  14                  15
  Freq [cm^-1]                1495.2738           1720.1223           3165.1258
  Irrep                          B1u                  Ag                 B1u
  Reduced mass [u]              1.1129              3.4729              1.0469
  Force const [mDyne/A]         1.4660              6.0542              6.1794

  Vibration                       16                  17                  18
  Freq [cm^-1]                3165.4321           3228.8934           3254.1942
  Irrep                           Ag                 B2g                 B3u
  Reduced mass [u]              1.0740              1.1189              1.1187
  Force const [mDyne/A]         6.3406              6.8729              6.9801

  ==> Thermochemistry Components <==

  Entropy, S
    Electronic S            0.000 [cal/(mol K)]        0.000 [J/(mol K)]       0.00000000 [mEh/K] (multiplicity = 1)
    Translational S        35.927 [cal/(mol K)]      150.318 [J/(mol K)]       0.05725309 [mEh/K] (mol. weight = 28.0313 [u], P = 101325.00 [Pa])
    Rotational S           15.844 [cal/(mol K)]       66.290 [J/(mol K)]       0.02524860 [mEh/K] (symmetry no. = 4)
    Vibrational S           0.470 [cal/(mol K)]        1.965 [J/(mol K)]       0.00074831 [mEh/K]
  Total S                  52.240 [cal/(mol K)]      218.573 [J/(mol K)]       0.08325000 [mEh/K]
  Correction S              0.000 [cal/(mol K)]        0.000 [J/(mol K)]       0.00000000 [mEh/K]

  Constant volume heat capacity, Cv
    Electronic Cv           0.000 [cal/(mol K)]        0.000 [J/(mol K)]       0.00000000 [mEh/K]
    Translational Cv        2.981 [cal/(mol K)]       12.472 [J/(mol K)]       0.00475022 [mEh/K]
    Rotational Cv           2.981 [cal/(mol K)]       12.472 [J/(mol K)]       0.00475022 [mEh/K]
    Vibrational Cv          1.917 [cal/(mol K)]        8.021 [J/(mol K)]       0.00305493 [mEh/K]
  Total Cv                  7.879 [cal/(mol K)]       32.964 [J/(mol K)]       0.01255536 [mEh/K]
  Correction Cv             0.000 [cal/(mol K)]        0.000 [J/(mol K)]       0.00000000 [mEh/K]

  Constant pressure heat capacity, Cp
    Electronic Cp           0.000 [cal/(mol K)]        0.000 [J/(mol K)]       0.00000000 [mEh/K]
    Translational Cp        4.968 [cal/(mol K)]       20.786 [J/(mol K)]       0.00791703 [mEh/K]
    Rotational Cp           2.981 [cal/(mol K)]       12.472 [J/(mol K)]       0.00475022 [mEh/K]
    Vibrational Cp          1.917 [cal/(mol K)]        8.021 [J/(mol K)]       0.00305493 [mEh/K]
  Total Cp                  9.866 [cal/(mol K)]       41.279 [J/(mol K)]       0.01572217 [mEh/K]
  Correction Cp             0.000 [cal/(mol K)]        0.000 [J/(mol K)]       0.00000000 [mEh/K]

  ==> Thermochemistry Energy Analysis <==

  Raw electronic energy, E0
  Total E0, Electronic energy at well bottom at 0 [K]                  -78.59366489 [Eh]

  Zero-point energy, ZPE_vib = Sum_i nu_i / 2
    Electronic ZPE          0.000 [kcal/mol]        0.000 [kJ/mol]       0.00000000 [Eh]
    Translational ZPE       0.000 [kcal/mol]        0.000 [kJ/mol]       0.00000000 [Eh]
    Rotational ZPE          0.000 [kcal/mol]        0.000 [kJ/mol]       0.00000000 [Eh]
    Vibrational ZPE        32.573 [kcal/mol]      136.287 [kJ/mol]       0.05190893 [Eh]       11392.692 [cm^-1]
  Correction ZPE           32.573 [kcal/mol]      136.287 [kJ/mol]       0.05190893 [Eh]       11392.692 [cm^-1]
  Total ZPE, Electronic energy at 0 [K]                                -78.54175596 [Eh]

  Thermal Energy, E (includes ZPE)
    Electronic E            0.000 [kcal/mol]        0.000 [kJ/mol]       0.00000000 [Eh]
    Translational E         0.889 [kcal/mol]        3.718 [kJ/mol]       0.00141628 [Eh]
    Rotational E            0.889 [kcal/mol]        3.718 [kJ/mol]       0.00141628 [Eh]
    Vibrational E          32.689 [kcal/mol]      136.771 [kJ/mol]       0.05209340 [Eh]
  Correction E             34.467 [kcal/mol]      144.208 [kJ/mol]       0.05492595 [Eh]
  Total E, Electronic energy at  298.15 [K]                            -78.53873894 [Eh]

  Enthalpy, H_trans = E_trans + k_B * T
    Electronic H            0.000 [kcal/mol]        0.000 [kJ/mol]       0.00000000 [Eh]
    Translational H         1.481 [kcal/mol]        6.197 [kJ/mol]       0.00236046 [Eh]
    Rotational H            0.889 [kcal/mol]        3.718 [kJ/mol]       0.00141628 [Eh]
    Vibrational H          32.689 [kcal/mol]      136.771 [kJ/mol]       0.05209340 [Eh]
  Correction H             35.059 [kcal/mol]      146.687 [kJ/mol]       0.05587014 [Eh]
  Total H, Enthalpy at  298.15 [K]                                     -78.53779475 [Eh]

  Gibbs free energy, G = H - T * S
    Electronic G            0.000 [kcal/mol]        0.000 [kJ/mol]       0.00000000 [Eh]
    Translational G        -9.230 [kcal/mol]      -38.620 [kJ/mol]      -0.01470955 [Eh]
    Rotational G           -3.835 [kcal/mol]      -16.046 [kJ/mol]      -0.00611159 [Eh]
    Vibrational G          32.549 [kcal/mol]      136.185 [kJ/mol]       0.05187029 [Eh]
  Correction G             19.484 [kcal/mol]       81.520 [kJ/mol]       0.03104915 [Eh]
  Total G, Free enthalpy at  298.15 [K]                                -78.56261574 [Eh]

*** Psi4 exiting successfully. Buy a developer a beer!
