                               Psi4 1.3.2 release

  ==> Input File <==

--------------------------------------------------------------------------
memory 144 GB

molecule {
0 1
C 0.0000000000 0.0000000000 0.0000000000
Cl 0.0000000000 0.0000000000 1.7182578700
Cl 1.6229007750 0.0000000000 -0.5644494507
}

set dynamic_level 1
set basis aug-cc-pV(Q+d)Z

optimize("wB97X-V")
frequencies("wB97X-V")
--------------------------------------------------------------------------

    Molecular point group: c2v
  Charge       = 0
  Multiplicity = 1
  Basis Set: AUG-CC-PV(Q+D)Z
    Blend: AUG-CC-PV(Q+D)Z
  Basis Set: (AUG-CC-PV(Q+D)Z AUX)
    Blend: AUG-CC-PVQZ-JKFIT
  @DF-RKS Final Energy:  -958.31001128450157
    Total Energy =                       -958.3100112845015701
    Molecular point group: c2v
  Basis Set: AUG-CC-PV(Q+D)Z
    Blend: AUG-CC-PV(Q+D)Z
  Basis Set: (AUG-CC-PV(Q+D)Z AUX)
    Blend: AUG-CC-PVQZ-JKFIT
  @DF-RKS Final Energy:  -958.30999989813392
    Total Energy =                       -958.3099998981338103
  Basis Set: AUG-CC-PV(Q+D)Z
    Blend: AUG-CC-PV(Q+D)Z
  Basis Set: (AUG-CC-PV(Q+D)Z AUX)
    Blend: AUG-CC-PVQZ-JKFIT
  @DF-RKS Final Energy:  -958.31002219572269
    Total Energy =                       -958.3100221957228086
  Basis Set: AUG-CC-PV(Q+D)Z
    Blend: AUG-CC-PV(Q+D)Z
  Basis Set: (AUG-CC-PV(Q+D)Z AUX)
    Blend: AUG-CC-PVQZ-JKFIT
  @DF-RKS Final Energy:  -958.31001815400998
    Total Energy =                       -958.3100181540099811
  @DF-RKS Final Energy:  -958.31000425033835
    Total Energy =                       -958.3100042503383520
  @DF-RKS Final Energy:  -958.31017278495744
    Total Energy =                       -958.3101727849574445
  @DF-RKS Final Energy:  -958.31016740776920
    Total Energy =                       -958.3101674077690859
  @DF-RKS Final Energy:  -958.31017766990624
    Total Energy =                       -958.3101776699062384
  @DF-RKS Final Energy:  -958.31017337608512
    Total Energy =                       -958.3101733760850038
  @DF-RKS Final Energy:  -958.31017202451767
    Total Energy =                       -958.3101720245176693
  @DF-RKS Final Energy:  -958.31020039206032
    Total Energy =                       -958.3102003920603238
  @DF-RKS Final Energy:  -958.31020120554501
    Total Energy =                       -958.3102012055448995
  @DF-RKS Final Energy:  -958.31019909114457
    Total Energy =                       -958.3101990911445682
  @DF-RKS Final Energy:  -958.31020031212074
    Total Energy =                       -958.3102003121207417
  @DF-RKS Final Energy:  -958.31020030828870
    Total Energy =                       -958.3102003082886995
  @DF-RKS Final Energy:  -958.31020187915885
    Total Energy =                       -958.3102018791589671
  @DF-RKS Final Energy:  -958.31020161020581
    Total Energy =                       -958.3102016102058087
  @DF-RKS Final Energy:  -958.31020165507903
    Total Energy =                       -958.3102016550792541
  @DF-RKS Final Energy:  -958.31020180144344
    Total Energy =                       -958.3102018014434407
  @DF-RKS Final Energy:  -958.31020179136965
    Total Energy =                       -958.3102017913696500
  **** Optimization is complete! (in 4 steps) ****
    Final optimized geometry and variables:
  @DF-RKS Final Energy:  -958.31020188125183
    Total Energy =                       -958.3102018812519418
  @DF-RKS Final Energy:  -958.31020160981166
    Total Energy =                       -958.3102016098115428
  @DF-RKS Final Energy:  -958.31020165106429
    Total Energy =                       -958.3102016510642898
  @DF-RKS Final Energy:  -958.31020179936365
    Total Energy =                       -958.3102017993636537
  @DF-RKS Final Energy:  -958.31020178764766
    Total Energy =                       -958.3102017876476566
  @DF-RKS Final Energy:  -958.31020188125194
    Total Energy =                       -958.3102018812519418
  @DF-RKS Final Energy:  -958.31020160981188
    Total Energy =                       -958.3102016098118838
  @DF-RKS Final Energy:  -958.31020165106463
    Total Energy =                       -958.3102016510646308
  @DF-RKS Final Energy:  -958.31020179936525
    Total Energy =                       -958.3102017993652453
  Basis Set: AUG-CC-PV(Q+D)Z
    Blend: AUG-CC-PV(Q+D)Z
  Basis Set: (AUG-CC-PV(Q+D)Z AUX)
    Blend: AUG-CC-PVQZ-JKFIT
  @DF-RKS Final Energy:  -958.31020178764788
    Total Energy =                       -958.3102017876478840
  Basis Set: AUG-CC-PV(Q+D)Z
    Blend: AUG-CC-PV(Q+D)Z
  Basis Set: (AUG-CC-PV(Q+D)Z AUX)
    Blend: AUG-CC-PVQZ-JKFIT
  @DF-RKS Final Energy:  -958.31020170223917
    Total Energy =                       -958.3102017022391692
  Multiplicity = 1
  Basis Set: AUG-CC-PV(Q+D)Z
    Blend: AUG-CC-PV(Q+D)Z
  Basis Set: (AUG-CC-PV(Q+D)Z AUX)
    Blend: AUG-CC-PVQZ-JKFIT
  @DF-RKS Final Energy:  -958.31020166735846
    Total Energy =                       -958.3102016673584558
    Molecular point group: cs

    Geometry (in Angstrom), charge = 0, multiplicity = 1:

       Center              X                  Y                   Z               Mass
    ------------   -----------------  -----------------  -----------------  -----------------
         C            0.000000000000    -0.000681145995    -0.839562476484    12.000000000000
         CL           0.000000000000     1.390763830860     0.144135856691    34.968852682000
         CL           0.000000000000    -1.390530087076     0.143970527851    34.968852682000

  Charge       = 0
  Multiplicity = 1
  Basis Set: AUG-CC-PV(Q+D)Z
    Blend: AUG-CC-PV(Q+D)Z
  Basis Set: (AUG-CC-PV(Q+D)Z AUX)
    Blend: AUG-CC-PVQZ-JKFIT

    Orbital Energies [Eh]
    ---------------------

    Doubly Occupied:

       1Ap  -101.596709     2Ap  -101.596438     3Ap   -10.429510
       4Ap    -9.613415     5Ap    -9.613125     6Ap    -7.368261
       7Ap    -7.367978     1App   -7.363083     2App   -7.362787
       8Ap    -7.359455     9Ap    -7.359169    10Ap    -1.078941
      11Ap    -0.991997    12Ap    -0.730766    13Ap    -0.581710
      14Ap    -0.537989     3App   -0.533524     4App   -0.458800
      15Ap    -0.438039    16Ap    -0.365310

  @DF-RKS Final Energy:  -958.31020155928297

   => Energetics <=

    Nuclear Repulsion Energy =            118.3624076047469345
    One-Electron Energy =               -1556.2326057385282638
    Two-Electron Energy =                 525.8254842550187504
    DFT Exchange-Correlation Energy =     -46.4308342496753994
    Empirical Dispersion Energy =           0.0000000000000000
    VV10 Nonlocal Energy =                  0.1653465691549515
    Total Energy =                       -958.3102015592829730

  Dipole Moment: [D]
     X:     0.0000      Y:    -0.0078      Z:     1.1477     Total:     1.1477

  Vibration                       7                   8                   9
  Freq [cm^-1]                 359.4809            765.8175            825.0044
  Irrep                           A1                  A1                  B2
  Reduced mass [u]             29.1157             14.3744             13.8643
  Force const [mDyne/A]         2.2168              4.9670              5.5598

  ==> Thermochemistry Components <==

  Entropy, S
    Electronic S            0.000 [cal/(mol K)]        0.000 [J/(mol K)]       0.00000000 [mEh/K] (multiplicity = 1)
    Translational S        39.124 [cal/(mol K)]      163.696 [J/(mol K)]       0.06234835 [mEh/K] (mol. weight = 81.9377 [u], P = 101325.00 [Pa])
    Rotational S           22.320 [cal/(mol K)]       93.388 [J/(mol K)]       0.03556952 [mEh/K] (symmetry no. = 2)
    Vibrational S           1.549 [cal/(mol K)]        6.482 [J/(mol K)]       0.00246885 [mEh/K]
  Total S                  62.994 [cal/(mol K)]      263.565 [J/(mol K)]       0.10038673 [mEh/K]
  Correction S              0.000 [cal/(mol K)]        0.000 [J/(mol K)]       0.00000000 [mEh/K]

  Constant volume heat capacity, Cv
    Electronic Cv           0.000 [cal/(mol K)]        0.000 [J/(mol K)]       0.00000000 [mEh/K]
    Translational Cv        2.981 [cal/(mol K)]       12.472 [J/(mol K)]       0.00475022 [mEh/K]
    Rotational Cv           2.981 [cal/(mol K)]       12.472 [J/(mol K)]       0.00475022 [mEh/K]
    Vibrational Cv          2.875 [cal/(mol K)]       12.028 [J/(mol K)]       0.00458141 [mEh/K]
  Total Cv                  8.836 [cal/(mol K)]       36.972 [J/(mol K)]       0.01408184 [mEh/K]
  Correction Cv             0.000 [cal/(mol K)]        0.000 [J/(mol K)]       0.00000000 [mEh/K]

  Constant pressure heat capacity, Cp
    Electronic Cp           0.000 [cal/(mol K)]        0.000 [J/(mol K)]       0.00000000 [mEh/K]
    Translational Cp        4.968 [cal/(mol K)]       20.786 [J/(mol K)]       0.00791703 [mEh/K]
    Rotational Cp           2.981 [cal/(mol K)]       12.472 [J/(mol K)]       0.00475022 [mEh/K]
    Vibrational Cp          2.875 [cal/(mol K)]       12.028 [J/(mol K)]       0.00458141 [mEh/K]
  Total Cp                 10.824 [cal/(mol K)]       45.286 [J/(mol K)]       0.01724865 [mEh/K]
  Correction Cp             0.000 [cal/(mol K)]        0.000 [J/(mol K)]       0.00000000 [mEh/K]

  ==> Thermochemistry Energy Analysis <==

  Raw electronic energy, E0
  Total E0, Electronic energy at well bottom at 0 [K]                 -958.31020188 [Eh]

  Zero-point energy, ZPE_vib = Sum_i nu_i / 2
    Electronic ZPE          0.000 [kcal/mol]        0.000 [kJ/mol]       0.00000000 [Eh]
    Translational ZPE       0.000 [kcal/mol]        0.000 [kJ/mol]       0.00000000 [Eh]
    Rotational ZPE          0.000 [kcal/mol]        0.000 [kJ/mol]       0.00000000 [Eh]
    Vibrational ZPE         2.788 [kcal/mol]       11.665 [kJ/mol]       0.00444312 [Eh]         975.151 [cm^-1]
  Correction ZPE            2.788 [kcal/mol]       11.665 [kJ/mol]       0.00444312 [Eh]         975.151 [cm^-1]
  Total ZPE, Electronic energy at 0 [K]                               -958.30575876 [Eh]

  Thermal Energy, E (includes ZPE)
    Electronic E            0.000 [kcal/mol]        0.000 [kJ/mol]       0.00000000 [Eh]
    Translational E         0.889 [kcal/mol]        3.718 [kJ/mol]       0.00141628 [Eh]
    Rotational E            0.889 [kcal/mol]        3.718 [kJ/mol]       0.00141628 [Eh]
    Vibrational E           3.109 [kcal/mol]       13.008 [kJ/mol]       0.00495438 [Eh]
  Correction E              4.886 [kcal/mol]       20.445 [kJ/mol]       0.00778694 [Eh]
  Total E, Electronic energy at  298.15 [K]                           -958.30241494 [Eh]

  Enthalpy, H_trans = E_trans + k_B * T
    Electronic H            0.000 [kcal/mol]        0.000 [kJ/mol]       0.00000000 [Eh]
    Translational H         1.481 [kcal/mol]        6.197 [kJ/mol]       0.00236046 [Eh]
    Rotational H            0.889 [kcal/mol]        3.718 [kJ/mol]       0.00141628 [Eh]
    Vibrational H           3.109 [kcal/mol]       13.008 [kJ/mol]       0.00495438 [Eh]
  Correction H              5.479 [kcal/mol]       22.924 [kJ/mol]       0.00873112 [Eh]
  Total H, Enthalpy at  298.15 [K]                                    -958.30147076 [Eh]

  Gibbs free energy, G = H - T * S
    Electronic G            0.000 [kcal/mol]        0.000 [kJ/mol]       0.00000000 [Eh]
    Translational G       -10.184 [kcal/mol]      -42.608 [kJ/mol]      -0.01622870 [Eh]
    Rotational G           -5.766 [kcal/mol]      -24.125 [kJ/mol]      -0.00918878 [Eh]
    Vibrational G           2.647 [kcal/mol]       11.075 [kJ/mol]       0.00421830 [Eh]
  Correction G            -13.303 [kcal/mol]      -55.658 [kJ/mol]      -0.02119918 [Eh]
  Total G, Free enthalpy at  298.15 [K]                               -958.33140106 [Eh]

*** Psi4 exiting successfully. Buy a developer a beer!
