                               Psi4 1.3.2 release

  ==> Input File <==

--------------------------------------------------------------------------
memory 144 GB

molecule {
0 1
C 0.0000000000 0.0000000000 0.0000000000
Cl 0.0000000000 0.0000000000 1.7182578700
Cl 1.6229007750 0.0000000000 -0.5644494507
}

set basis aug-cc-pV(Q+d)Z

optimize("wB97X-V")
frequencies("wB97X-V")
--------------------------------------------------------------------------

    Molecular point group: c2v
  Charge       = 0
  Multiplicity = 1
  Basis Set: AUG-CC-PV(Q+D)Z
    Blend: AUG-CC-PV(Q+D)Z
  Basis Set: (AUG-CC-PV(Q+D)Z AUX)
    Blend: AUG-CC-PVQZ-JKFIT
  @DF-RKS Final Energy:  -958.31001128450089
    Total Energy =                       -958.3100112845007743
    Molecular point group: c2v
  Basis Set: AUG-CC-PV(Q+D)Z
    Blend: AUG-CC-PV(Q+D)Z
  Basis Set: (AUG-CC-PV(Q+D)Z AUX)
    Blend: AUG-CC-PVQZ-JKFIT
  @DF-RKS Final Energy:  -958.30999989813392
    Total Energy =                       -958.3099998981339240
  Basis Set: AUG-CC-PV(Q+D)Z
    Blend: AUG-CC-PV(Q+D)Z
  Basis Set: (AUG-CC-PV(Q+D)Z AUX)
    Blend: AUG-CC-PVQZ-JKFIT
  @DF-RKS Final Energy:  -958.31002219572224
    Total Energy =                       -958.3100221957222402
  Basis Set: AUG-CC-PV(Q+D)Z
    Blend: AUG-CC-PV(Q+D)Z
  Basis Set: (AUG-CC-PV(Q+D)Z AUX)
    Blend: AUG-CC-PVQZ-JKFIT
  @DF-RKS Final Energy:  -958.31001815400987
    Total Energy =                       -958.3100181540099811
  @DF-RKS Final Energy:  -958.31000425033790
    Total Energy =                       -958.3100042503378972
  @DF-RKS Final Energy:  -958.31017278170543
    Total Energy =                       -958.3101727817054325
  @DF-RKS Final Energy:  -958.31016740959035
    Total Energy =                       -958.3101674095903491
  @DF-RKS Final Energy:  -958.31017766899606
    Total Energy =                       -958.3101776689961753
  @DF-RKS Final Energy:  -958.31017337562241
    Total Energy =                       -958.3101733756224121
  @DF-RKS Final Energy:  -958.31017202568921
    Total Energy =                       -958.3101720256893259
  @DF-RKS Final Energy:  -958.31020039257567
    Total Energy =                       -958.3102003925757799
  @DF-RKS Final Energy:  -958.31020120652465
    Total Energy =                       -958.3102012065245390
  @DF-RKS Final Energy:  -958.31019909668237
    Total Energy =                       -958.3101990966824815
  @DF-RKS Final Energy:  -958.31020031541925
    Total Energy =                       -958.3102003154191380
  @DF-RKS Final Energy:  -958.31020031200796
    Total Energy =                       -958.3102003120081918
  @DF-RKS Final Energy:  -958.31020187690558
    Total Energy =                       -958.3102018769055803
  @DF-RKS Final Energy:  -958.31020161028528
    Total Energy =                       -958.3102016102852758
  @DF-RKS Final Energy:  -958.31020164626489
    Total Energy =                       -958.3102016462647725
  @DF-RKS Final Energy:  -958.31020180261157
    Total Energy =                       -958.3102018026116866
  @DF-RKS Final Energy:  -958.31020178953122
    Total Energy =                       -958.3102017895312201
  **** Optimization is complete! (in 4 steps) ****
    Final optimized geometry and variables:
  @DF-RKS Final Energy:  -958.31020187690501
    Total Energy =                       -958.3102018769050119
  @DF-RKS Final Energy:  -958.31020161028903
    Total Energy =                       -958.3102016102890275
  @DF-RKS Final Energy:  -958.31020164626784
    Total Energy =                       -958.3102016462678421
  @DF-RKS Final Energy:  -958.31020180261305
    Total Energy =                       -958.3102018026129372
  @DF-RKS Final Energy:  -958.31020178953122
    Total Energy =                       -958.3102017895313338
  @DF-RKS Final Energy:  -958.31020187690615
    Total Energy =                       -958.3102018769061488
  @DF-RKS Final Energy:  -958.31020161028846
    Total Energy =                       -958.3102016102885727
  @DF-RKS Final Energy:  -958.31020164626796
    Total Energy =                       -958.3102016462680695
  @DF-RKS Final Energy:  -958.31020180261305
    Total Energy =                       -958.3102018026129372
  Basis Set: AUG-CC-PV(Q+D)Z
    Blend: AUG-CC-PV(Q+D)Z
  Basis Set: (AUG-CC-PV(Q+D)Z AUX)
    Blend: AUG-CC-PVQZ-JKFIT
  @DF-RKS Final Energy:  -958.31020178953224
    Total Energy =                       -958.3102017895321296
  Basis Set: AUG-CC-PV(Q+D)Z
    Blend: AUG-CC-PV(Q+D)Z
  Basis Set: (AUG-CC-PV(Q+D)Z AUX)
    Blend: AUG-CC-PVQZ-JKFIT
  @DF-RKS Final Energy:  -958.31020170016745
    Total Energy =                       -958.3102017001674540
  Multiplicity = 1
  Basis Set: AUG-CC-PV(Q+D)Z
    Blend: AUG-CC-PV(Q+D)Z
  Basis Set: (AUG-CC-PV(Q+D)Z AUX)
    Blend: AUG-CC-PVQZ-JKFIT
  @DF-RKS Final Energy:  -958.31020167419820
    Total Energy =                       -958.3102016741981970
    Molecular point group: cs

    Geometry (in Angstrom), charge = 0, multiplicity = 1:

       Center              X                  Y                   Z               Mass
    ------------   -----------------  -----------------  -----------------  -----------------
         C            0.000000000000    -0.000681146216    -0.839560463429    12.000000000000
         CL           0.000000000000     1.390767098031     0.144135510923    34.968852682000
         CL           0.000000000000    -1.390533354172     0.143970182814    34.968852682000

  Charge       = 0
  Multiplicity = 1
  Basis Set: AUG-CC-PV(Q+D)Z
    Blend: AUG-CC-PV(Q+D)Z
  Basis Set: (AUG-CC-PV(Q+D)Z AUX)
    Blend: AUG-CC-PVQZ-JKFIT

    Orbital Energies [Eh]
    ---------------------

    Doubly Occupied:

       1Ap  -101.596710     2Ap  -101.596438     3Ap   -10.429511
       4Ap    -9.613415     5Ap    -9.613125     6Ap    -7.368261
       7Ap    -7.367978     1App   -7.363083     2App   -7.362787
       8Ap    -7.359455     9Ap    -7.359169    10Ap    -1.078940
      11Ap    -0.991997    12Ap    -0.730766    13Ap    -0.581710
      14Ap    -0.537988     3App   -0.533524     4App   -0.458800
      15Ap    -0.438039    16Ap    -0.365310

  @DF-RKS Final Energy:  -958.31020156273814

   => Energetics <=

    Nuclear Repulsion Energy =            118.3622298516816898
    One-Electron Energy =               -1556.2322513677681854
    Two-Electron Energy =                 525.8253065466008138
    DFT Exchange-Correlation Energy =     -46.4308331740956888
    Empirical Dispersion Energy =           0.0000000000000000
    VV10 Nonlocal Energy =                  0.1653465808433280
    Total Energy =                       -958.3102015627381434

  Dipole Moment: [D]
     X:     0.0000      Y:    -0.0078      Z:     1.1477     Total:     1.1477

  Vibration                       7                   8                   9
  Freq [cm^-1]                 342.6819            760.9469            814.9487
  Irrep                           A1                  A1                  B2
  Reduced mass [u]             29.4062             14.3046             13.8643
  Force const [mDyne/A]         2.0346              4.8802              5.4251

  ==> Thermochemistry Components <==

  Entropy, S
    Electronic S            0.000 [cal/(mol K)]        0.000 [J/(mol K)]       0.00000000 [mEh/K] (multiplicity = 1)
    Translational S        39.124 [cal/(mol K)]      163.696 [J/(mol K)]       0.06234835 [mEh/K] (mol. weight = 81.9377 [u], P = 101325.00 [Pa])
    Rotational S           22.320 [cal/(mol K)]       93.388 [J/(mol K)]       0.03556953 [mEh/K] (symmetry no. = 2)
    Vibrational S           1.637 [cal/(mol K)]        6.848 [J/(mol K)]       0.00260817 [mEh/K]
  Total S                  63.081 [cal/(mol K)]      263.931 [J/(mol K)]       0.10052605 [mEh/K]
  Correction S              0.000 [cal/(mol K)]        0.000 [J/(mol K)]       0.00000000 [mEh/K]

  Constant volume heat capacity, Cv
    Electronic Cv           0.000 [cal/(mol K)]        0.000 [J/(mol K)]       0.00000000 [mEh/K]
    Translational Cv        2.981 [cal/(mol K)]       12.472 [J/(mol K)]       0.00475022 [mEh/K]
    Rotational Cv           2.981 [cal/(mol K)]       12.472 [J/(mol K)]       0.00475022 [mEh/K]
    Vibrational Cv          2.934 [cal/(mol K)]       12.275 [J/(mol K)]       0.00467531 [mEh/K]
  Total Cv                  8.895 [cal/(mol K)]       37.218 [J/(mol K)]       0.01417574 [mEh/K]
  Correction Cv             0.000 [cal/(mol K)]        0.000 [J/(mol K)]       0.00000000 [mEh/K]

  Constant pressure heat capacity, Cp
    Electronic Cp           0.000 [cal/(mol K)]        0.000 [J/(mol K)]       0.00000000 [mEh/K]
    Translational Cp        4.968 [cal/(mol K)]       20.786 [J/(mol K)]       0.00791703 [mEh/K]
    Rotational Cp           2.981 [cal/(mol K)]       12.472 [J/(mol K)]       0.00475022 [mEh/K]
    Vibrational Cp          2.934 [cal/(mol K)]       12.275 [J/(mol K)]       0.00467531 [mEh/K]
  Total Cp                 10.883 [cal/(mol K)]       45.533 [J/(mol K)]       0.01734255 [mEh/K]
  Correction Cp             0.000 [cal/(mol K)]        0.000 [J/(mol K)]       0.00000000 [mEh/K]

  ==> Thermochemistry Energy Analysis <==

  Raw electronic energy, E0
  Total E0, Electronic energy at well bottom at 0 [K]                 -958.31020188 [Eh]

  Zero-point energy, ZPE_vib = Sum_i nu_i / 2
    Electronic ZPE          0.000 [kcal/mol]        0.000 [kJ/mol]       0.00000000 [Eh]
    Translational ZPE       0.000 [kcal/mol]        0.000 [kJ/mol]       0.00000000 [Eh]
    Rotational ZPE          0.000 [kcal/mol]        0.000 [kJ/mol]       0.00000000 [Eh]
    Vibrational ZPE         2.743 [kcal/mol]       11.476 [kJ/mol]       0.00437084 [Eh]         959.289 [cm^-1]
  Correction ZPE            2.743 [kcal/mol]       11.476 [kJ/mol]       0.00437084 [Eh]         959.289 [cm^-1]
  Total ZPE, Electronic energy at 0 [K]                               -958.30583104 [Eh]

  Thermal Energy, E (includes ZPE)
    Electronic E            0.000 [kcal/mol]        0.000 [kJ/mol]       0.00000000 [Eh]
    Translational E         0.889 [kcal/mol]        3.718 [kJ/mol]       0.00141628 [Eh]
    Rotational E            0.889 [kcal/mol]        3.718 [kJ/mol]       0.00141628 [Eh]
    Vibrational E           3.078 [kcal/mol]       12.878 [kJ/mol]       0.00490494 [Eh]
  Correction E              4.855 [kcal/mol]       20.315 [kJ/mol]       0.00773749 [Eh]
  Total E, Electronic energy at  298.15 [K]                           -958.30246438 [Eh]

  Enthalpy, H_trans = E_trans + k_B * T
    Electronic H            0.000 [kcal/mol]        0.000 [kJ/mol]       0.00000000 [Eh]
    Translational H         1.481 [kcal/mol]        6.197 [kJ/mol]       0.00236046 [Eh]
    Rotational H            0.889 [kcal/mol]        3.718 [kJ/mol]       0.00141628 [Eh]
    Vibrational H           3.078 [kcal/mol]       12.878 [kJ/mol]       0.00490494 [Eh]
  Correction H              5.448 [kcal/mol]       22.794 [kJ/mol]       0.00868168 [Eh]
  Total H, Enthalpy at  298.15 [K]                                    -958.30152020 [Eh]

  Gibbs free energy, G = H - T * S
    Electronic G            0.000 [kcal/mol]        0.000 [kJ/mol]       0.00000000 [Eh]
    Translational G       -10.184 [kcal/mol]      -42.608 [kJ/mol]      -0.01622870 [Eh]
    Rotational G           -5.766 [kcal/mol]      -24.125 [kJ/mol]      -0.00918878 [Eh]
    Vibrational G           2.590 [kcal/mol]       10.836 [kJ/mol]       0.00412732 [Eh]
  Correction G            -13.360 [kcal/mol]      -55.897 [kJ/mol]      -0.02129016 [Eh]
  Total G, Free enthalpy at  298.15 [K]                               -958.33149204 [Eh]

*** Psi4 exiting successfully. Buy a developer a beer!
