                               Psi4 1.3.2 release

  ==> Input File <==

--------------------------------------------------------------------------
memory 144 GB

molecule {
0 1
C 0.0000000000 0.0000000000 0.0000000000
F 0.0000000000 0.0000000000 1.2971000000
F 1.2538059978 0.0000000000 -0.3323235319
}

set dynamic_level 1
set basis aug-cc-pV(Q+d)Z

optimize("wB97X-V")
frequencies("wB97X-V")
--------------------------------------------------------------------------

    Molecular point group: c2v
  Charge       = 0
  Multiplicity = 1
  Basis Set: AUG-CC-PV(Q+D)Z
    Blend: AUG-CC-PV(Q+D)Z
  Basis Set: (AUG-CC-PV(Q+D)Z AUX)
    Blend: AUG-CC-PVQZ-JKFIT
  @DF-RKS Final Energy:  -237.73737215242494
    Total Energy =                       -237.7373721524249390
    Molecular point group: c2v
  Basis Set: AUG-CC-PV(Q+D)Z
    Blend: AUG-CC-PV(Q+D)Z
  Basis Set: (AUG-CC-PV(Q+D)Z AUX)
    Blend: AUG-CC-PVQZ-JKFIT
  @DF-RKS Final Energy:  -237.73737926872718
    Total Energy =                       -237.7373792687271816
  Basis Set: AUG-CC-PV(Q+D)Z
    Blend: AUG-CC-PV(Q+D)Z
  Basis Set: (AUG-CC-PV(Q+D)Z AUX)
    Blend: AUG-CC-PVQZ-JKFIT
  @DF-RKS Final Energy:  -237.73736369571196
    Total Energy =                       -237.7373636957119913
  Basis Set: AUG-CC-PV(Q+D)Z
    Blend: AUG-CC-PV(Q+D)Z
  Basis Set: (AUG-CC-PV(Q+D)Z AUX)
    Blend: AUG-CC-PVQZ-JKFIT
  @DF-RKS Final Energy:  -237.73736755247933
    Total Energy =                       -237.7373675524793271
  @DF-RKS Final Energy:  -237.73737613675280
    Total Energy =                       -237.7373761367528004
  @DF-RKS Final Energy:  -237.73739665300565
    Total Energy =                       -237.7373966530056180
  @DF-RKS Final Energy:  -237.73739820560530
    Total Energy =                       -237.7373982056053023
  @DF-RKS Final Energy:  -237.73739378091429
    Total Energy =                       -237.7373937809142888
  @DF-RKS Final Energy:  -237.73739510095226
    Total Energy =                       -237.7373951009522557
  @DF-RKS Final Energy:  -237.73739760008502
    Total Energy =                       -237.7373976000850462
  @DF-RKS Final Energy:  -237.73739887076698
    Total Energy =                       -237.7373988707669525
  @DF-RKS Final Energy:  -237.73739826930796
    Total Energy =                       -237.7373982693079597
  @DF-RKS Final Energy:  -237.73739815098918
    Total Energy =                       -237.7373981509891792
  @DF-RKS Final Energy:  -237.73739858800985
    Total Energy =                       -237.7373985880098530
  @DF-RKS Final Energy:  -237.73739855076624
    Total Energy =                       -237.7373985507662439
  **** Optimization is complete! (in 3 steps) ****
    Final optimized geometry and variables:
  @DF-RKS Final Energy:  -237.73739887076721
    Total Energy =                       -237.7373988707672083
  @DF-RKS Final Energy:  -237.73739827047461
    Total Energy =                       -237.7373982704746140
  @DF-RKS Final Energy:  -237.73739815124381
    Total Energy =                       -237.7373981512437808
  @DF-RKS Final Energy:  -237.73739858801108
    Total Energy =                       -237.7373985880110752
  @DF-RKS Final Energy:  -237.73739855076698
    Total Energy =                       -237.7373985507669829
  @DF-RKS Final Energy:  -237.73739887076798
    Total Energy =                       -237.7373988707680041
  @DF-RKS Final Energy:  -237.73739827047496
    Total Energy =                       -237.7373982704749551
  @DF-RKS Final Energy:  -237.73739815124441
    Total Energy =                       -237.7373981512444061
  @DF-RKS Final Energy:  -237.73739858801119
    Total Energy =                       -237.7373985880111888
  Basis Set: AUG-CC-PV(Q+D)Z
    Blend: AUG-CC-PV(Q+D)Z
  Basis Set: (AUG-CC-PV(Q+D)Z AUX)
    Blend: AUG-CC-PVQZ-JKFIT
  @DF-RKS Final Energy:  -237.73739855076744
    Total Energy =                       -237.7373985507674377
  Basis Set: AUG-CC-PV(Q+D)Z
    Blend: AUG-CC-PV(Q+D)Z
  Basis Set: (AUG-CC-PV(Q+D)Z AUX)
    Blend: AUG-CC-PVQZ-JKFIT
  @DF-RKS Final Energy:  -237.73739821855273
    Total Energy =                       -237.7373982185527268
  Multiplicity = 1
  Basis Set: AUG-CC-PV(Q+D)Z
    Blend: AUG-CC-PV(Q+D)Z
  Basis Set: (AUG-CC-PV(Q+D)Z AUX)
    Blend: AUG-CC-PVQZ-JKFIT
  @DF-RKS Final Energy:  -237.73739837155702
    Total Energy =                       -237.7373983715570205
    Molecular point group: cs

    Geometry (in Angstrom), charge = 0, multiplicity = 1:

       Center              X                  Y                   Z               Mass
    ------------   -----------------  -----------------  -----------------  -----------------
         C            0.000000000000    -0.000622796163    -0.604223242487    12.000000000000
         F            0.000000000000     1.029949770980     0.190975235969    18.998403162730
         F            0.000000000000    -1.029556392973     0.190671518642    18.998403162730

  Charge       = 0
  Multiplicity = 1
  Basis Set: AUG-CC-PV(Q+D)Z
    Blend: AUG-CC-PV(Q+D)Z
  Basis Set: (AUG-CC-PV(Q+D)Z AUX)
    Blend: AUG-CC-PVQZ-JKFIT

    Orbital Energies [Eh]
    ---------------------

    Doubly Occupied:

       1Ap   -24.841239     2Ap   -24.840597     3Ap   -10.479744
       4Ap    -1.476766     5Ap    -1.398799     6Ap    -0.836636
       7Ap    -0.724828     1App   -0.681780     8Ap    -0.676883
       2App   -0.599659     9Ap    -0.573575    10Ap    -0.421445

  @DF-RKS Final Energy:  -237.73739825369390

   => Energetics <=

    Nuclear Repulsion Energy =             64.7425115621470439
    One-Electron Energy =                -457.1551940117383310
    Two-Electron Energy =                 173.4220385612012194
    DFT Exchange-Correlation Energy =     -18.8473895545466164
    Empirical Dispersion Energy =           0.0000000000000000
    VV10 Nonlocal Energy =                  0.1006351892427902
    Total Energy =                       -237.7373982536938968

  Dipole Moment: [D]
     X:     0.0000      Y:    -0.0080      Z:     0.6075     Total:     0.6075

  Vibration                       7                   8                   9
  Freq [cm^-1]                 677.9045           1142.1363           1254.0239
  Irrep                           A1                  B2                  A1
  Reduced mass [u]             17.7439             13.6901             13.8420
  Force const [mDyne/A]         4.8044             10.5219             12.8251

  ==> Thermochemistry Components <==

  Entropy, S
    Electronic S            0.000 [cal/(mol K)]        0.000 [J/(mol K)]       0.00000000 [mEh/K] (multiplicity = 1)
    Translational S        37.652 [cal/(mol K)]      157.535 [J/(mol K)]       0.06000175 [mEh/K] (mol. weight = 49.9968 [u], P = 101325.00 [Pa])
    Rotational S           19.438 [cal/(mol K)]       81.329 [J/(mol K)]       0.03097644 [mEh/K] (symmetry no. = 2)
    Vibrational S           0.419 [cal/(mol K)]        1.753 [J/(mol K)]       0.00066756 [mEh/K]
  Total S                  57.509 [cal/(mol K)]      240.616 [J/(mol K)]       0.09164574 [mEh/K]
  Correction S              0.000 [cal/(mol K)]        0.000 [J/(mol K)]       0.00000000 [mEh/K]

  Constant volume heat capacity, Cv
    Electronic Cv           0.000 [cal/(mol K)]        0.000 [J/(mol K)]       0.00000000 [mEh/K]
    Translational Cv        2.981 [cal/(mol K)]       12.472 [J/(mol K)]       0.00475022 [mEh/K]
    Rotational Cv           2.981 [cal/(mol K)]       12.472 [J/(mol K)]       0.00475022 [mEh/K]
    Vibrational Cv          1.290 [cal/(mol K)]        5.398 [J/(mol K)]       0.00205591 [mEh/K]
  Total Cv                  7.252 [cal/(mol K)]       30.341 [J/(mol K)]       0.01155634 [mEh/K]
  Correction Cv             0.000 [cal/(mol K)]        0.000 [J/(mol K)]       0.00000000 [mEh/K]

  Constant pressure heat capacity, Cp
    Electronic Cp           0.000 [cal/(mol K)]        0.000 [J/(mol K)]       0.00000000 [mEh/K]
    Translational Cp        4.968 [cal/(mol K)]       20.786 [J/(mol K)]       0.00791703 [mEh/K]
    Rotational Cp           2.981 [cal/(mol K)]       12.472 [J/(mol K)]       0.00475022 [mEh/K]
    Vibrational Cp          1.290 [cal/(mol K)]        5.398 [J/(mol K)]       0.00205591 [mEh/K]
  Total Cp                  9.239 [cal/(mol K)]       38.656 [J/(mol K)]       0.01472315 [mEh/K]
  Correction Cp             0.000 [cal/(mol K)]        0.000 [J/(mol K)]       0.00000000 [mEh/K]

  ==> Thermochemistry Energy Analysis <==

  Raw electronic energy, E0
  Total E0, Electronic energy at well bottom at 0 [K]                 -237.73739887 [Eh]

  Zero-point energy, ZPE_vib = Sum_i nu_i / 2
    Electronic ZPE          0.000 [kcal/mol]        0.000 [kJ/mol]       0.00000000 [Eh]
    Translational ZPE       0.000 [kcal/mol]        0.000 [kJ/mol]       0.00000000 [Eh]
    Rotational ZPE          0.000 [kcal/mol]        0.000 [kJ/mol]       0.00000000 [Eh]
    Vibrational ZPE         4.395 [kcal/mol]       18.387 [kJ/mol]       0.00700323 [Eh]        1537.032 [cm^-1]
  Correction ZPE            4.395 [kcal/mol]       18.387 [kJ/mol]       0.00700323 [Eh]        1537.032 [cm^-1]
  Total ZPE, Electronic energy at 0 [K]                               -237.73039564 [Eh]

  Thermal Energy, E (includes ZPE)
    Electronic E            0.000 [kcal/mol]        0.000 [kJ/mol]       0.00000000 [Eh]
    Translational E         0.889 [kcal/mol]        3.718 [kJ/mol]       0.00141628 [Eh]
    Rotational E            0.889 [kcal/mol]        3.718 [kJ/mol]       0.00141628 [Eh]
    Vibrational E           4.493 [kcal/mol]       18.798 [kJ/mol]       0.00715969 [Eh]
  Correction E              6.270 [kcal/mol]       26.235 [kJ/mol]       0.00999224 [Eh]
  Total E, Electronic energy at  298.15 [K]                           -237.72740663 [Eh]

  Enthalpy, H_trans = E_trans + k_B * T
    Electronic H            0.000 [kcal/mol]        0.000 [kJ/mol]       0.00000000 [Eh]
    Translational H         1.481 [kcal/mol]        6.197 [kJ/mol]       0.00236046 [Eh]
    Rotational H            0.889 [kcal/mol]        3.718 [kJ/mol]       0.00141628 [Eh]
    Vibrational H           4.493 [kcal/mol]       18.798 [kJ/mol]       0.00715969 [Eh]
  Correction H              6.863 [kcal/mol]       28.714 [kJ/mol]       0.01093642 [Eh]
  Total H, Enthalpy at  298.15 [K]                                    -237.72646245 [Eh]

  Gibbs free energy, G = H - T * S
    Electronic G            0.000 [kcal/mol]        0.000 [kJ/mol]       0.00000000 [Eh]
    Translational G        -9.745 [kcal/mol]      -40.772 [kJ/mol]      -0.01552906 [Eh]
    Rotational G           -4.907 [kcal/mol]      -20.530 [kJ/mol]      -0.00781935 [Eh]
    Vibrational G           4.368 [kcal/mol]       18.275 [kJ/mol]       0.00696065 [Eh]
  Correction G            -10.283 [kcal/mol]      -43.026 [kJ/mol]      -0.01638775 [Eh]
  Total G, Free enthalpy at  298.15 [K]                               -237.75378662 [Eh]

*** Psi4 exiting successfully. Buy a developer a beer!
