                               Psi4 1.3.2 release

  ==> Input File <==

--------------------------------------------------------------------------
memory 144 GB

molecule {
0 1
H 0.0000000000 0.0000000000 0.0000000000
C 0.0000000000 0.0000000000 1.0879000000
H 1.0256819563 0.0000000000 1.4505333333
H -0.5128409782 0.8882666304 1.4505333333
H -0.5128409782 -0.8882666304 1.4505333333
}

set basis aug-cc-pV(Q+d)Z

frequencies("wB97X-V")
optimize("wB97X-V")
frequencies("wB97X-V")
--------------------------------------------------------------------------

    Molecular point group: c2v
  Charge       = 0
  Multiplicity = 1
  Basis Set: AUG-CC-PV(Q+D)Z
    Blend: AUG-CC-PV(Q+D)Z
  Basis Set: (AUG-CC-PV(Q+D)Z AUX)
    Blend: AUG-CC-PVQZ-JKFIT
  @DF-RKS Final Energy:   -40.51864748531852
    Total Energy =                        -40.5186474853185032
    Molecular point group: c2v
  Basis Set: AUG-CC-PV(Q+D)Z
    Blend: AUG-CC-PV(Q+D)Z
  Basis Set: (AUG-CC-PV(Q+D)Z AUX)
    Blend: AUG-CC-PVQZ-JKFIT
  @DF-RKS Final Energy:   -40.51863647046059
    Total Energy =                        -40.5186364704605850
  Basis Set: AUG-CC-PV(Q+D)Z
    Blend: AUG-CC-PV(Q+D)Z
  Basis Set: (AUG-CC-PV(Q+D)Z AUX)
    Blend: AUG-CC-PVQZ-JKFIT
  @DF-RKS Final Energy:   -40.51865183789601
    Total Energy =                        -40.5186518378960088
  Basis Set: AUG-CC-PV(Q+D)Z
    Blend: AUG-CC-PV(Q+D)Z
  Basis Set: (AUG-CC-PV(Q+D)Z AUX)
    Blend: AUG-CC-PVQZ-JKFIT
  @DF-RKS Final Energy:   -40.51865101671874
    Total Energy =                        -40.5186510167187350
  @DF-RKS Final Energy:   -40.51863941954495
    Total Energy =                        -40.5186394195449537
  @DF-RKS Final Energy:   -40.51865022658820
    Total Energy =                        -40.5186502265881998
  @DF-RKS Final Energy:   -40.51864018768221
    Total Energy =                        -40.5186401876822089
  @DF-RKS Final Energy:   -40.51863647091383
    Total Energy =                        -40.5186364709138331
  @DF-RKS Final Energy:   -40.51865184050524
    Total Energy =                        -40.5186518405052496
  @DF-RKS Final Energy:   -40.51864748531853
    Total Energy =                        -40.5186474853185317
  @DF-RKS Final Energy:   -40.51863647046052
    Total Energy =                        -40.5186364704605211
  @DF-RKS Final Energy:   -40.51865183789610
    Total Energy =                        -40.5186518378961011
  @DF-RKS Final Energy:   -40.51865101671878
    Total Energy =                        -40.5186510167187990
  @DF-RKS Final Energy:   -40.51863941954507
    Total Energy =                        -40.5186394195450745
  @DF-RKS Final Energy:   -40.51865022658810
    Total Energy =                        -40.5186502265881003
  @DF-RKS Final Energy:   -40.51864018768224
    Total Energy =                        -40.5186401876822515
  @DF-RKS Final Energy:   -40.51863647091393
    Total Energy =                        -40.5186364709139326
  @DF-RKS Final Energy:   -40.51865184050540
    Total Energy =                        -40.5186518405054059
  @DF-RKS Final Energy:   -40.51864718062148
    Total Energy =                        -40.5186471806214783
  @DF-RKS Final Energy:   -40.51864341932809
    Total Energy =                        -40.5186434193280931

  Vibration                       1                   8                   9
  Freq [cm^-1]                1068.2363i          1075.0452           1147.7707
  Irrep                           A2                  B1                  B2
  Reduced mass [u]              1.0078              1.1898              1.1687
  Force const [mDyne/A]        -0.6776              0.8102              0.9071

  Vibration                       10                  11                  12
  Freq [cm^-1]                1331.7296           1562.8184           3062.0398
  Irrep                           A1                  A1                  A1
  Reduced mass [u]              1.1788              1.0078              1.0078
  Force const [mDyne/A]         1.2317              1.4503              5.5675

  Vibration                       13                  14                  15
  Freq [cm^-1]                3062.8008           3086.5285           3177.6393
  Irrep                           B2                  B1                  A1
  Reduced mass [u]              1.1108              1.0924              1.1018
  Force const [mDyne/A]         6.1391              6.1316              6.5550

    Irrep   Nso     Nmo     Nalpha   Nbeta   Ndocc  Nsocc

    Irrep   Nso     Nmo     Nalpha   Nbeta   Ndocc  Nsocc

    Irrep   Nso     Nmo     Nalpha   Nbeta   Ndocc  Nsocc

    Irrep   Nso     Nmo     Nalpha   Nbeta   Ndocc  Nsocc

    Irrep   Nso     Nmo     Nalpha   Nbeta   Ndocc  Nsocc

    Irrep   Nso     Nmo     Nalpha   Nbeta   Ndocc  Nsocc

    Irrep   Nso     Nmo     Nalpha   Nbeta   Ndocc  Nsocc

    Irrep   Nso     Nmo     Nalpha   Nbeta   Ndocc  Nsocc

    Irrep   Nso     Nmo     Nalpha   Nbeta   Ndocc  Nsocc

    Irrep   Nso     Nmo     Nalpha   Nbeta   Ndocc  Nsocc

    Irrep   Nso     Nmo     Nalpha   Nbeta   Ndocc  Nsocc

    Irrep   Nso     Nmo     Nalpha   Nbeta   Ndocc  Nsocc

    Irrep   Nso     Nmo     Nalpha   Nbeta   Ndocc  Nsocc

    Irrep   Nso     Nmo     Nalpha   Nbeta   Ndocc  Nsocc

    Irrep   Nso     Nmo     Nalpha   Nbeta   Ndocc  Nsocc

    Irrep   Nso     Nmo     Nalpha   Nbeta   Ndocc  Nsocc

    Irrep   Nso     Nmo     Nalpha   Nbeta   Ndocc  Nsocc

    Irrep   Nso     Nmo     Nalpha   Nbeta   Ndocc  Nsocc

  **** Optimization is complete! (in 2 steps) ****
    Final optimized geometry and variables:

    Irrep   Nso     Nmo     Nalpha   Nbeta   Ndocc  Nsocc

    Irrep   Nso     Nmo     Nalpha   Nbeta   Ndocc  Nsocc

    Irrep   Nso     Nmo     Nalpha   Nbeta   Ndocc  Nsocc

    Irrep   Nso     Nmo     Nalpha   Nbeta   Ndocc  Nsocc

    Irrep   Nso     Nmo     Nalpha   Nbeta   Ndocc  Nsocc

    Irrep   Nso     Nmo     Nalpha   Nbeta   Ndocc  Nsocc

    Irrep   Nso     Nmo     Nalpha   Nbeta   Ndocc  Nsocc

    Irrep   Nso     Nmo     Nalpha   Nbeta   Ndocc  Nsocc

    Irrep   Nso     Nmo     Nalpha   Nbeta   Ndocc  Nsocc

     Irrep 1: 4
     Irrep 2: 1
     Irrep 3: 2
     Irrep 4: 2

      Irrep 1: 20
      Irrep 2: 1
      Irrep 3: 4
      Irrep 4: 4

    Irrep   Nso     Nmo     Nalpha   Nbeta   Ndocc  Nsocc

    Irrep   Nso     Nmo     Nalpha   Nbeta   Ndocc  Nsocc

    Irrep   Nso     Nmo     Nalpha   Nbeta   Ndocc  Nsocc

    Irrep   Nso     Nmo     Nalpha   Nbeta   Ndocc  Nsocc

    Irrep   Nso     Nmo     Nalpha   Nbeta   Ndocc  Nsocc

    Irrep   Nso     Nmo     Nalpha   Nbeta   Ndocc  Nsocc

    Irrep   Nso     Nmo     Nalpha   Nbeta   Ndocc  Nsocc

    Irrep   Nso     Nmo     Nalpha   Nbeta   Ndocc  Nsocc

    Irrep   Nso     Nmo     Nalpha   Nbeta   Ndocc  Nsocc

    Irrep   Nso     Nmo     Nalpha   Nbeta   Ndocc  Nsocc

    Irrep   Nso     Nmo     Nalpha   Nbeta   Ndocc  Nsocc

  @DF-RKS Final Energy:   -40.51865530437541
    Total Energy =                        -40.5186553043754074

    Irrep   Nso     Nmo     Nalpha   Nbeta   Ndocc  Nsocc

  @DF-RKS Final Energy:   -40.51865127577741
    Total Energy =                        -40.5186512757774082

    Irrep   Nso     Nmo     Nalpha   Nbeta   Ndocc  Nsocc

  @DF-RKS Final Energy:   -40.51865134433616
    Total Energy =                        -40.5186513443361562

    Irrep   Nso     Nmo     Nalpha   Nbeta   Ndocc  Nsocc

  @DF-RKS Final Energy:   -40.51865315979195
    Total Energy =                        -40.5186531597919455

    Irrep   Nso     Nmo     Nalpha   Nbeta   Ndocc  Nsocc

  @DF-RKS Final Energy:   -40.51865282693980
    Total Energy =                        -40.5186528269397925

    Irrep   Nso     Nmo     Nalpha   Nbeta   Ndocc  Nsocc

  @DF-RKS Final Energy:   -40.51865060074556
    Total Energy =                        -40.5186506007455662

    Irrep   Nso     Nmo     Nalpha   Nbeta   Ndocc  Nsocc

  @DF-RKS Final Energy:   -40.51865107190992
    Total Energy =                        -40.5186510719099289

    Irrep   Nso     Nmo     Nalpha   Nbeta   Ndocc  Nsocc

  @DF-RKS Final Energy:   -40.51865177554451
    Total Energy =                        -40.5186517755445124

    Irrep   Nso     Nmo     Nalpha   Nbeta   Ndocc  Nsocc

  @DF-RKS Final Energy:   -40.51865182559541
    Total Energy =                        -40.5186518255954269

    Irrep   Nso     Nmo     Nalpha   Nbeta   Ndocc  Nsocc

  @DF-RKS Final Energy:   -40.51865526324652
    Total Energy =                        -40.5186552632465151

    Irrep   Nso     Nmo     Nalpha   Nbeta   Ndocc  Nsocc

  @DF-RKS Final Energy:   -40.51865535877296
    Total Energy =                        -40.5186553587729676

    Irrep   Nso     Nmo     Nalpha   Nbeta   Ndocc  Nsocc

  @DF-RKS Final Energy:   -40.51865797713554
    Total Energy =                        -40.5186579771355397

    Irrep   Nso     Nmo     Nalpha   Nbeta   Ndocc  Nsocc

  @DF-RKS Final Energy:   -40.51865688787553
    Total Energy =                        -40.5186568878755295

    Irrep   Nso     Nmo     Nalpha   Nbeta   Ndocc  Nsocc

  @DF-RKS Final Energy:   -40.51865302071306
    Total Energy =                        -40.5186530207130602

    Irrep   Nso     Nmo     Nalpha   Nbeta   Ndocc  Nsocc

  @DF-RKS Final Energy:   -40.51865193831696
    Total Energy =                        -40.5186519383169639

    Irrep   Nso     Nmo     Nalpha   Nbeta   Ndocc  Nsocc

  @DF-RKS Final Energy:   -40.51865193336333
    Total Energy =                        -40.5186519333633299
  Basis Set: AUG-CC-PV(Q+D)Z
    Blend: AUG-CC-PV(Q+D)Z

    Irrep   Nso     Nmo     Nalpha   Nbeta   Ndocc  Nsocc

  Basis Set: (AUG-CC-PV(Q+D)Z AUX)
    Blend: AUG-CC-PVQZ-JKFIT
  @DF-RKS Final Energy:   -40.51865322082411
    Total Energy =                        -40.5186532208241061
  Basis Set: AUG-CC-PV(Q+D)Z
    Blend: AUG-CC-PV(Q+D)Z

    Irrep   Nso     Nmo     Nalpha   Nbeta   Ndocc  Nsocc

  Basis Set: (AUG-CC-PV(Q+D)Z AUX)
    Blend: AUG-CC-PVQZ-JKFIT
  @DF-RKS Final Energy:   -40.51865670090216
    Total Energy =                        -40.5186567009021630
  Multiplicity = 1
  Basis Set: AUG-CC-PV(Q+D)Z
    Blend: AUG-CC-PV(Q+D)Z

    Irrep   Nso     Nmo     Nalpha   Nbeta   Ndocc  Nsocc

  Basis Set: (AUG-CC-PV(Q+D)Z AUX)
    Blend: AUG-CC-PVQZ-JKFIT
  @DF-RKS Final Energy:   -40.51865390146176
    Total Energy =                        -40.5186539014617679
    Molecular point group: cs

    Geometry (in Angstrom), charge = 0, multiplicity = 1:

       Center              X                  Y                   Z               Mass
    ------------   -----------------  -----------------  -----------------  -----------------
         H            0.000000000000     0.888443291840    -0.629444519820     1.007825032230
         C            0.000000000000     0.000538951915     0.000000188160    12.000000000000
         H            0.889915886742    -0.001736122077     0.629256982979     1.007825032230
         H           -0.889915886742    -0.001736122077     0.629256982979     1.007825032230
         H            0.000000000000    -0.891388255810    -0.629071686523     1.007825032230

  Charge       = 0
  Multiplicity = 1
  Basis Set: AUG-CC-PV(Q+D)Z
    Blend: AUG-CC-PV(Q+D)Z

    Irrep   Nso     Nmo     Nalpha   Nbeta   Ndocc  Nsocc

  Basis Set: (AUG-CC-PV(Q+D)Z AUX)
    Blend: AUG-CC-PVQZ-JKFIT

    Orbital Energies [Eh]
    ---------------------

    Doubly Occupied:

       1Ap   -10.248316     2Ap    -0.822947     3Ap    -0.499438
       1App   -0.498867     4Ap    -0.498295

  @DF-RKS Final Energy:   -40.51865389862670

   => Energetics <=

    Nuclear Repulsion Energy =             13.4364286688838934
    One-Electron Energy =                 -79.8286689391553352
    Two-Electron Energy =                  30.3792539818758343
    DFT Exchange-Correlation Energy =      -4.5470296298884261
    Empirical Dispersion Energy =           0.0000000000000000
    VV10 Nonlocal Energy =                  0.0413620196573459
    Total Energy =                        -40.5186538986266882

  Dipole Moment: [D]
     X:     0.0000      Y:    -0.0003      Z:    -0.0000     Total:     0.0003

  Vibration                       1                   8                   9
  Freq [cm^-1]                1045.6754i          1083.2525           1141.3753
  Irrep                           A2                  B1                  B2
  Reduced mass [u]              1.0078              1.1895              1.1679
  Force const [mDyne/A]        -0.6493              0.8224              0.8965

  Vibration                       10                  11                  12
  Freq [cm^-1]                1336.3103           1563.5061           3043.5175
  Irrep                           A1                  A1                  B2
  Reduced mass [u]              1.1787              1.0078              1.1115
  Force const [mDyne/A]         1.2402              1.4516              6.0660

  Vibration                       13                  14                  15
  Freq [cm^-1]                3045.7485           3069.2137           3159.6422
  Irrep                           A1                  B1                  A1
  Reduced mass [u]              1.0078              1.0926              1.1019
  Force const [mDyne/A]         5.5084              6.0642              6.4811

  ==> Thermochemistry Components <==

  Entropy, S
    Electronic S            0.000 [cal/(mol K)]        0.000 [J/(mol K)]       0.00000000 [mEh/K] (multiplicity = 1)
    Translational S        34.261 [cal/(mol K)]      143.349 [J/(mol K)]       0.05459877 [mEh/K] (mol. weight = 16.0313 [u], P = 101325.00 [Pa])
    Rotational S           13.680 [cal/(mol K)]       57.236 [J/(mol K)]       0.02180017 [mEh/K] (symmetry no. = 2)
    Vibrational S           0.152 [cal/(mol K)]        0.635 [J/(mol K)]       0.00024203 [mEh/K]
  Total S                  48.093 [cal/(mol K)]      201.221 [J/(mol K)]       0.07664097 [mEh/K]
  Correction S              0.000 [cal/(mol K)]        0.000 [J/(mol K)]       0.00000000 [mEh/K]

  Constant volume heat capacity, Cv
    Electronic Cv           0.000 [cal/(mol K)]        0.000 [J/(mol K)]       0.00000000 [mEh/K]
    Translational Cv        2.981 [cal/(mol K)]       12.472 [J/(mol K)]       0.00475022 [mEh/K]
    Rotational Cv           2.981 [cal/(mol K)]       12.472 [J/(mol K)]       0.00475022 [mEh/K]
    Vibrational Cv          0.733 [cal/(mol K)]        3.066 [J/(mol K)]       0.00116771 [mEh/K]
  Total Cv                  6.694 [cal/(mol K)]       28.009 [J/(mol K)]       0.01066815 [mEh/K]
  Correction Cv             0.000 [cal/(mol K)]        0.000 [J/(mol K)]       0.00000000 [mEh/K]

  Constant pressure heat capacity, Cp
    Electronic Cp           0.000 [cal/(mol K)]        0.000 [J/(mol K)]       0.00000000 [mEh/K]
    Translational Cp        4.968 [cal/(mol K)]       20.786 [J/(mol K)]       0.00791703 [mEh/K]
    Rotational Cp           2.981 [cal/(mol K)]       12.472 [J/(mol K)]       0.00475022 [mEh/K]
    Vibrational Cp          0.733 [cal/(mol K)]        3.066 [J/(mol K)]       0.00116771 [mEh/K]
  Total Cp                  8.682 [cal/(mol K)]       36.324 [J/(mol K)]       0.01383496 [mEh/K]
  Correction Cp             0.000 [cal/(mol K)]        0.000 [J/(mol K)]       0.00000000 [mEh/K]

  ==> Thermochemistry Energy Analysis <==

  Raw electronic energy, E0
  Total E0, Electronic energy at well bottom at 0 [K]                  -40.51865746 [Eh]

  Zero-point energy, ZPE_vib = Sum_i nu_i / 2
    Electronic ZPE          0.000 [kcal/mol]        0.000 [kJ/mol]       0.00000000 [Eh]
    Translational ZPE       0.000 [kcal/mol]        0.000 [kJ/mol]       0.00000000 [Eh]
    Rotational ZPE          0.000 [kcal/mol]        0.000 [kJ/mol]       0.00000000 [Eh]
    Vibrational ZPE        24.935 [kcal/mol]      104.330 [kJ/mol]       0.03973709 [Eh]        8721.283 [cm^-1]
  Correction ZPE           24.935 [kcal/mol]      104.330 [kJ/mol]       0.03973709 [Eh]        8721.283 [cm^-1]
  Total ZPE, Electronic energy at 0 [K]                                -40.47892037 [Eh]

  Thermal Energy, E (includes ZPE)
    Electronic E            0.000 [kcal/mol]        0.000 [kJ/mol]       0.00000000 [Eh]
    Translational E         0.889 [kcal/mol]        3.718 [kJ/mol]       0.00141628 [Eh]
    Rotational E            0.889 [kcal/mol]        3.718 [kJ/mol]       0.00141628 [Eh]
    Vibrational E          24.974 [kcal/mol]      104.491 [kJ/mol]       0.03979834 [Eh]
  Correction E             26.751 [kcal/mol]      111.927 [kJ/mol]       0.04263089 [Eh]
  Total E, Electronic energy at  298.15 [K]                            -40.47602657 [Eh]

  Enthalpy, H_trans = E_trans + k_B * T
    Electronic H            0.000 [kcal/mol]        0.000 [kJ/mol]       0.00000000 [Eh]
    Translational H         1.481 [kcal/mol]        6.197 [kJ/mol]       0.00236046 [Eh]
    Rotational H            0.889 [kcal/mol]        3.718 [kJ/mol]       0.00141628 [Eh]
    Vibrational H          24.974 [kcal/mol]      104.491 [kJ/mol]       0.03979834 [Eh]
  Correction H             27.344 [kcal/mol]      114.406 [kJ/mol]       0.04357507 [Eh]
  Total H, Enthalpy at  298.15 [K]                                     -40.47508239 [Eh]

  Gibbs free energy, G = H - T * S
    Electronic G            0.000 [kcal/mol]        0.000 [kJ/mol]       0.00000000 [Eh]
    Translational G        -8.734 [kcal/mol]      -36.542 [kJ/mol]      -0.01391816 [Eh]
    Rotational G           -3.190 [kcal/mol]      -13.347 [kJ/mol]      -0.00508345 [Eh]
    Vibrational G          24.929 [kcal/mol]      104.301 [kJ/mol]       0.03972618 [Eh]
  Correction G             13.005 [kcal/mol]       54.412 [kJ/mol]       0.02072457 [Eh]
  Total G, Free enthalpy at  298.15 [K]                                -40.49793289 [Eh]

*** Psi4 exiting successfully. Buy a developer a beer!
