                               Psi4 1.3.2 release

  ==> Input File <==

--------------------------------------------------------------------------
memory 144 GB

molecule {
0 1
Cl 0.0000000000 0.0000000000 0.0000000000
Cl 0.0000000000 0.0000000000 1.9965761200
}

set dynamic_level 1
set basis aug-cc-pV(Q+d)Z

optimize("wB97X-V")
frequencies("wB97X-V")
--------------------------------------------------------------------------

    Molecular point group: d2h
  Charge       = 0
  Multiplicity = 1
  Basis Set: AUG-CC-PV(Q+D)Z
    Blend: AUG-CC-PV(Q+D)Z
  Basis Set: (AUG-CC-PV(Q+D)Z AUX)
    Blend: AUG-CC-PVQZ-JKFIT
  @DF-RKS Final Energy:  -920.27534832997674
    Total Energy =                       -920.2753483299766231
    Molecular point group: d2h
  Basis Set: AUG-CC-PV(Q+D)Z
    Blend: AUG-CC-PV(Q+D)Z
  Basis Set: (AUG-CC-PV(Q+D)Z AUX)
    Blend: AUG-CC-PVQZ-JKFIT
  @DF-RKS Final Energy:  -920.27533820253086
    Total Energy =                       -920.2753382025308611
  Basis Set: AUG-CC-PV(Q+D)Z
    Blend: AUG-CC-PV(Q+D)Z
  Basis Set: (AUG-CC-PV(Q+D)Z AUX)
    Blend: AUG-CC-PVQZ-JKFIT
  @DF-RKS Final Energy:  -920.27535815114175
    Total Energy =                       -920.2753581511418588
  Basis Set: AUG-CC-PV(Q+D)Z
    Blend: AUG-CC-PV(Q+D)Z
  Basis Set: (AUG-CC-PV(Q+D)Z AUX)
    Blend: AUG-CC-PVQZ-JKFIT
  @DF-RKS Final Energy:  -920.27548530945410
    Total Energy =                       -920.2754853094542113
  @DF-RKS Final Energy:  -920.27548143460820
    Total Energy =                       -920.2754814346083094
  @DF-RKS Final Energy:  -920.27548886222689
    Total Energy =                       -920.2754888622268936
  @DF-RKS Final Energy:  -920.27550633907856
    Total Energy =                       -920.2755063390784471
  @DF-RKS Final Energy:  -920.27550634642046
    Total Energy =                       -920.2755063464204568
  @DF-RKS Final Energy:  -920.27550599321910
    Total Energy =                       -920.2755059932189852
  **** Optimization is complete! (in 3 steps) ****
    Final optimized geometry and variables:
  @DF-RKS Final Energy:  -920.27550633728549
    Total Energy =                       -920.2755063372854920
  @DF-RKS Final Energy:  -920.27550634366855
    Total Energy =                       -920.2755063436685532
  Basis Set: AUG-CC-PV(Q+D)Z
    Blend: AUG-CC-PV(Q+D)Z
  Basis Set: (AUG-CC-PV(Q+D)Z AUX)
    Blend: AUG-CC-PVQZ-JKFIT
  @DF-RKS Final Energy:  -920.27550599321944
    Total Energy =                       -920.2755059932194399
  Basis Set: AUG-CC-PV(Q+D)Z
    Blend: AUG-CC-PV(Q+D)Z
  Basis Set: (AUG-CC-PV(Q+D)Z AUX)
    Blend: AUG-CC-PVQZ-JKFIT
  @DF-RKS Final Energy:  -920.27550633728504
    Total Energy =                       -920.2755063372849236
  Multiplicity = 1
  Basis Set: AUG-CC-PV(Q+D)Z
    Blend: AUG-CC-PV(Q+D)Z
  Basis Set: (AUG-CC-PV(Q+D)Z AUX)
    Blend: AUG-CC-PVQZ-JKFIT
  @DF-RKS Final Energy:  -920.27550634366821
    Total Energy =                       -920.2755063436680985
    Molecular point group: d2h

    Geometry (in Angstrom), charge = 0, multiplicity = 1:

       Center              X                  Y                   Z               Mass
    ------------   -----------------  -----------------  -----------------  -----------------
         CL           0.000000000000     0.000000000000    -0.987927488482    34.968852682000
         CL           0.000000000000     0.000000000000     0.987927488482    34.968852682000

  Charge       = 0
  Multiplicity = 1
  Basis Set: AUG-CC-PV(Q+D)Z
    Blend: AUG-CC-PV(Q+D)Z
  Basis Set: (AUG-CC-PV(Q+D)Z AUX)
    Blend: AUG-CC-PVQZ-JKFIT

    Orbital Energies [Eh]
    ---------------------

    Doubly Occupied:

       1B1u -101.605443     1Ag  -101.605439     2Ag    -9.618643
       2B1u   -9.618595     3Ag    -7.378622     3B1u   -7.378460
       1B2g   -7.364208     1B3g   -7.364208     1B3u   -7.364207
       1B2u   -7.364207     4Ag    -1.072722     4B1u   -0.892242
       5Ag    -0.574547     2B3u   -0.525916     2B2u   -0.525916
       2B2g   -0.409295     2B3g   -0.409295

  @DF-RKS Final Energy:  -920.27550599321921

   => Energetics <=

    Nuclear Repulsion Energy =             77.4005256795506114
    One-Electron Energy =               -1424.0911844259092049
    Two-Electron Energy =                 468.9749761099664056
    DFT Exchange-Correlation Energy =     -42.7021424869515585
    Empirical Dispersion Energy =           0.0000000000000000
    VV10 Nonlocal Energy =                  0.1423191301246577
    Total Energy =                       -920.2755059932190989

  Dipole Moment: [D]
     X:     0.0000      Y:     0.0000      Z:    -0.0000     Total:     0.0000

  Vibration                       6
  Freq [cm^-1]                 597.4322
  Irrep                           Ag
  Reduced mass [u]             34.9689
  Force const [mDyne/A]         7.3538

  ==> Thermochemistry Components <==

  Entropy, S
    Electronic S            0.000 [cal/(mol K)]        0.000 [J/(mol K)]       0.00000000 [mEh/K] (multiplicity = 1)
    Translational S        38.652 [cal/(mol K)]      161.721 [J/(mol K)]       0.06159614 [mEh/K] (mol. weight = 69.9377 [u], P = 101325.00 [Pa])
    Rotational S           13.990 [cal/(mol K)]       58.532 [J/(mol K)]       0.02229373 [mEh/K] (symmetry no. = 2)
    Vibrational S           0.454 [cal/(mol K)]        1.900 [J/(mol K)]       0.00072364 [mEh/K]
  Total S                  53.096 [cal/(mol K)]      222.153 [J/(mol K)]       0.08461351 [mEh/K]
  Correction S              0.000 [cal/(mol K)]        0.000 [J/(mol K)]       0.00000000 [mEh/K]

  Constant volume heat capacity, Cv
    Electronic Cv           0.000 [cal/(mol K)]        0.000 [J/(mol K)]       0.00000000 [mEh/K]
    Translational Cv        2.981 [cal/(mol K)]       12.472 [J/(mol K)]       0.00475022 [mEh/K]
    Rotational Cv           1.987 [cal/(mol K)]        8.314 [J/(mol K)]       0.00316681 [mEh/K]
    Vibrational Cv          1.037 [cal/(mol K)]        4.340 [J/(mol K)]       0.00165296 [mEh/K]
  Total Cv                  6.005 [cal/(mol K)]       25.126 [J/(mol K)]       0.00956999 [mEh/K]
  Correction Cv             0.000 [cal/(mol K)]        0.000 [J/(mol K)]       0.00000000 [mEh/K]

  Constant pressure heat capacity, Cp
    Electronic Cp           0.000 [cal/(mol K)]        0.000 [J/(mol K)]       0.00000000 [mEh/K]
    Translational Cp        4.968 [cal/(mol K)]       20.786 [J/(mol K)]       0.00791703 [mEh/K]
    Rotational Cp           1.987 [cal/(mol K)]        8.314 [J/(mol K)]       0.00316681 [mEh/K]
    Vibrational Cp          1.037 [cal/(mol K)]        4.340 [J/(mol K)]       0.00165296 [mEh/K]
  Total Cp                  7.992 [cal/(mol K)]       33.440 [J/(mol K)]       0.01273680 [mEh/K]
  Correction Cp             0.000 [cal/(mol K)]        0.000 [J/(mol K)]       0.00000000 [mEh/K]

  ==> Thermochemistry Energy Analysis <==

  Raw electronic energy, E0
  Total E0, Electronic energy at well bottom at 0 [K]                 -920.27550634 [Eh]

  Zero-point energy, ZPE_vib = Sum_i nu_i / 2
    Electronic ZPE          0.000 [kcal/mol]        0.000 [kJ/mol]       0.00000000 [Eh]
    Translational ZPE       0.000 [kcal/mol]        0.000 [kJ/mol]       0.00000000 [Eh]
    Rotational ZPE          0.000 [kcal/mol]        0.000 [kJ/mol]       0.00000000 [Eh]
    Vibrational ZPE         0.854 [kcal/mol]        3.573 [kJ/mol]       0.00136105 [Eh]         298.716 [cm^-1]
  Correction ZPE            0.854 [kcal/mol]        3.573 [kJ/mol]       0.00136105 [Eh]         298.716 [cm^-1]
  Total ZPE, Electronic energy at 0 [K]                               -920.27414529 [Eh]

  Thermal Energy, E (includes ZPE)
    Electronic E            0.000 [kcal/mol]        0.000 [kJ/mol]       0.00000000 [Eh]
    Translational E         0.889 [kcal/mol]        3.718 [kJ/mol]       0.00141628 [Eh]
    Rotational E            0.592 [kcal/mol]        2.479 [kJ/mol]       0.00094418 [Eh]
    Vibrational E           0.955 [kcal/mol]        3.997 [kJ/mol]       0.00152243 [Eh]
  Correction E              2.437 [kcal/mol]       10.195 [kJ/mol]       0.00388289 [Eh]
  Total E, Electronic energy at  298.15 [K]                           -920.27162345 [Eh]

  Enthalpy, H_trans = E_trans + k_B * T
    Electronic H            0.000 [kcal/mol]        0.000 [kJ/mol]       0.00000000 [Eh]
    Translational H         1.481 [kcal/mol]        6.197 [kJ/mol]       0.00236046 [Eh]
    Rotational H            0.592 [kcal/mol]        2.479 [kJ/mol]       0.00094418 [Eh]
    Vibrational H           0.955 [kcal/mol]        3.997 [kJ/mol]       0.00152243 [Eh]
  Correction H              3.029 [kcal/mol]       12.673 [kJ/mol]       0.00482707 [Eh]
  Total H, Enthalpy at  298.15 [K]                                    -920.27067927 [Eh]

  Gibbs free energy, G = H - T * S
    Electronic G            0.000 [kcal/mol]        0.000 [kJ/mol]       0.00000000 [Eh]
    Translational G       -10.043 [kcal/mol]      -42.020 [kJ/mol]      -0.01600443 [Eh]
    Rotational G           -3.578 [kcal/mol]      -14.972 [kJ/mol]      -0.00570269 [Eh]
    Vibrational G           0.820 [kcal/mol]        3.431 [kJ/mol]       0.00130667 [Eh]
  Correction G            -12.801 [kcal/mol]      -53.561 [kJ/mol]      -0.02040045 [Eh]
  Total G, Free enthalpy at  298.15 [K]                               -920.29590678 [Eh]

*** Psi4 exiting successfully. Buy a developer a beer!
