                               Psi4 1.3.2 release

  ==> Input File <==

--------------------------------------------------------------------------
memory 144 GB

molecule {
0 1
Cl 0.0000000000 0.0000000000 0.0000000000
C 0.0000000000 0.0000000000 1.6357056100
N 0.0000000000 0.0000000000 2.7976884200
}

set dynamic_level 1
set basis aug-cc-pV(Q+d)Z

optimize("wB97X-V")
frequencies("wB97X-V")
--------------------------------------------------------------------------

    Molecular point group: c2v
  Charge       = 0
  Multiplicity = 1
  Basis Set: AUG-CC-PV(Q+D)Z
    Blend: AUG-CC-PV(Q+D)Z
  Basis Set: (AUG-CC-PV(Q+D)Z AUX)
    Blend: AUG-CC-PVQZ-JKFIT
  @DF-RKS Final Energy:  -552.98053772404103
    Total Energy =                       -552.9805377240410280
    Molecular point group: c2v
  Basis Set: AUG-CC-PV(Q+D)Z
    Blend: AUG-CC-PV(Q+D)Z
  Basis Set: (AUG-CC-PV(Q+D)Z AUX)
    Blend: AUG-CC-PVQZ-JKFIT
  @DF-RKS Final Energy:  -552.98053220809788
    Total Energy =                       -552.9805322080978840
  Basis Set: AUG-CC-PV(Q+D)Z
    Blend: AUG-CC-PV(Q+D)Z
  Basis Set: (AUG-CC-PV(Q+D)Z AUX)
    Blend: AUG-CC-PVQZ-JKFIT
  @DF-RKS Final Energy:  -552.98054266324812
    Total Energy =                       -552.9805426632482295
  Basis Set: AUG-CC-PV(Q+D)Z
    Blend: AUG-CC-PV(Q+D)Z
  Basis Set: (AUG-CC-PV(Q+D)Z AUX)
    Blend: AUG-CC-PVQZ-JKFIT
  @DF-RKS Final Energy:  -552.98048336033617
    Total Energy =                       -552.9804833603362795
  @DF-RKS Final Energy:  -552.98058721238192
    Total Energy =                       -552.9805872123819199
  @DF-RKS Final Energy:  -552.98089310883586
    Total Energy =                       -552.9808931088358577
  @DF-RKS Final Energy:  -552.98089220356712
    Total Energy =                       -552.9808922035671230
  @DF-RKS Final Energy:  -552.98089339634794
    Total Energy =                       -552.9808933963480513
  @DF-RKS Final Energy:  -552.98088949066209
    Total Energy =                       -552.9808894906620935
  @DF-RKS Final Energy:  -552.98089146834002
    Total Energy =                       -552.9808914683400189
  @DF-RKS Final Energy:  -552.98089360059669
    Total Energy =                       -552.9808936005966871
  @DF-RKS Final Energy:  -552.98089321420628
    Total Energy =                       -552.9808932142061622
  @DF-RKS Final Energy:  -552.98089338903640
    Total Energy =                       -552.9808933890362823
  @DF-RKS Final Energy:  -552.98089116306687
    Total Energy =                       -552.9808911630669854
  @DF-RKS Final Energy:  -552.98089078396754
    Total Energy =                       -552.9808907839675385
  **** Optimization is complete! (in 3 steps) ****
    Final optimized geometry and variables:
  @DF-RKS Final Energy:  -552.98089360068900
    Total Energy =                       -552.9808936006891145
  @DF-RKS Final Energy:  -552.98089321739906
    Total Energy =                       -552.9808932173990570
  @DF-RKS Final Energy:  -552.98089338903583
    Total Energy =                       -552.9808933890359413
  @DF-RKS Final Energy:  -552.98089116553683
    Total Energy =                       -552.9808911655367183
  @DF-RKS Final Energy:  -552.98089078267333
    Total Energy =                       -552.9808907826732138
  @DF-RKS Final Energy:  -552.98089360068889
    Total Energy =                       -552.9808936006888871
  @DF-RKS Final Energy:  -552.98089321739917
    Total Energy =                       -552.9808932173991707
  @DF-RKS Final Energy:  -552.98089338903651
    Total Energy =                       -552.9808933890366234
  @DF-RKS Final Energy:  -552.98089116553774
    Total Energy =                       -552.9808911655378552
  @DF-RKS Final Energy:  -552.98089078267344
    Total Energy =                       -552.9808907826734412
  Basis Set: AUG-CC-PV(Q+D)Z
    Blend: AUG-CC-PV(Q+D)Z
  Basis Set: (AUG-CC-PV(Q+D)Z AUX)
    Blend: AUG-CC-PVQZ-JKFIT
  @DF-RKS Final Energy:  -552.98089101340997
    Total Energy =                       -552.9808910134099733
  Basis Set: AUG-CC-PV(Q+D)Z
    Blend: AUG-CC-PV(Q+D)Z
  Basis Set: (AUG-CC-PV(Q+D)Z AUX)
    Blend: AUG-CC-PVQZ-JKFIT
  @DF-RKS Final Energy:  -552.98089122617853
    Total Energy =                       -552.9808912261784144
  Multiplicity = 1
  Basis Set: AUG-CC-PV(Q+D)Z
    Blend: AUG-CC-PV(Q+D)Z
  Basis Set: (AUG-CC-PV(Q+D)Z AUX)
    Blend: AUG-CC-PVQZ-JKFIT
  @DF-RKS Final Energy:  -552.98089352843954
    Total Energy =                       -552.9808935284395375
    Molecular point group: cs

    Geometry (in Angstrom), charge = 0, multiplicity = 1:

       Center              X                  Y                   Z               Mass
    ------------   -----------------  -----------------  -----------------  -----------------
         CL           0.000000000000    -0.000093173378    -0.959369778104    34.968852682000
         C            0.000000000000     0.000656545447     0.671021406006    12.000000000000
         N            0.000000000000    -0.000329954640     1.820729045491    14.003074004430

  Charge       = 0
  Multiplicity = 1
  Basis Set: AUG-CC-PV(Q+D)Z
    Blend: AUG-CC-PV(Q+D)Z
  Basis Set: (AUG-CC-PV(Q+D)Z AUX)
    Blend: AUG-CC-PVQZ-JKFIT

    Orbital Energies [Eh]
    ---------------------

    Doubly Occupied:

       1Ap  -101.638178     2Ap   -14.436795     3Ap   -10.372653
       4Ap    -9.653379     5Ap    -7.410872     1App   -7.400029
       6Ap    -7.400029     7Ap    -1.101497     8Ap    -1.038470
       9Ap    -0.693424     2App   -0.559789    10Ap    -0.559789
      11Ap    -0.506187     3App   -0.442108    12Ap    -0.442108

  @DF-RKS Final Energy:  -552.98089353636760

   => Energetics <=

    Nuclear Repulsion Energy =             75.0886125089550092
    One-Electron Energy =                -908.4751105667302227
    Two-Electron Energy =                 310.2681330473352546
    DFT Exchange-Correlation Energy =     -29.9869524556876215
    Empirical Dispersion Energy =           0.0000000000000000
    VV10 Nonlocal Energy =                  0.1244239297599753
    Total Energy =                       -552.9808935363677165

  Dipole Moment: [D]
     X:     0.0000      Y:     0.0008      Z:    -2.9612     Total:     2.9612

  Vibration                       6                   7                   8
  Freq [cm^-1]                 368.7454            390.8105            764.6426
  Irrep                           B2                  B1                  A1
  Reduced mass [u]             12.7610             12.7610             17.9674
  Force const [mDyne/A]         1.0223              1.1483              6.1895

  Vibration                       9
  Freq [cm^-1]                2365.7305
  Irrep                           A1
  Reduced mass [u]             12.7415
  Force const [mDyne/A]        42.0147

  ==> Thermochemistry Components <==

  Entropy, S
    Electronic S            0.000 [cal/(mol K)]        0.000 [J/(mol K)]       0.00000000 [mEh/K] (multiplicity = 1)
    Translational S        38.243 [cal/(mol K)]      160.010 [J/(mol K)]       0.06094445 [mEh/K] (mol. weight = 60.9719 [u], P = 101325.00 [Pa])
    Rotational S           15.778 [cal/(mol K)]       66.016 [J/(mol K)]       0.02514424 [mEh/K] (symmetry no. = 1)
    Vibrational S           2.320 [cal/(mol K)]        9.709 [J/(mol K)]       0.00369779 [mEh/K]
  Total S                  56.342 [cal/(mol K)]      235.734 [J/(mol K)]       0.08978647 [mEh/K]
  Correction S              0.000 [cal/(mol K)]        0.000 [J/(mol K)]       0.00000000 [mEh/K]

  Constant volume heat capacity, Cv
    Electronic Cv           0.000 [cal/(mol K)]        0.000 [J/(mol K)]       0.00000000 [mEh/K]
    Translational Cv        2.981 [cal/(mol K)]       12.472 [J/(mol K)]       0.00475022 [mEh/K]
    Rotational Cv           1.987 [cal/(mol K)]        8.314 [J/(mol K)]       0.00316681 [mEh/K]
    Vibrational Cv          3.740 [cal/(mol K)]       15.648 [J/(mol K)]       0.00595994 [mEh/K]
  Total Cv                  8.708 [cal/(mol K)]       36.434 [J/(mol K)]       0.01387697 [mEh/K]
  Correction Cv             0.000 [cal/(mol K)]        0.000 [J/(mol K)]       0.00000000 [mEh/K]

  Constant pressure heat capacity, Cp
    Electronic Cp           0.000 [cal/(mol K)]        0.000 [J/(mol K)]       0.00000000 [mEh/K]
    Translational Cp        4.968 [cal/(mol K)]       20.786 [J/(mol K)]       0.00791703 [mEh/K]
    Rotational Cp           1.987 [cal/(mol K)]        8.314 [J/(mol K)]       0.00316681 [mEh/K]
    Vibrational Cp          3.740 [cal/(mol K)]       15.648 [J/(mol K)]       0.00595994 [mEh/K]
  Total Cp                 10.695 [cal/(mol K)]       44.748 [J/(mol K)]       0.01704378 [mEh/K]
  Correction Cp             0.000 [cal/(mol K)]        0.000 [J/(mol K)]       0.00000000 [mEh/K]

  ==> Thermochemistry Energy Analysis <==

  Raw electronic energy, E0
  Total E0, Electronic energy at well bottom at 0 [K]                 -552.98089360 [Eh]

  Zero-point energy, ZPE_vib = Sum_i nu_i / 2
    Electronic ZPE          0.000 [kcal/mol]        0.000 [kJ/mol]       0.00000000 [Eh]
    Translational ZPE       0.000 [kcal/mol]        0.000 [kJ/mol]       0.00000000 [Eh]
    Rotational ZPE          0.000 [kcal/mol]        0.000 [kJ/mol]       0.00000000 [Eh]
    Vibrational ZPE         5.561 [kcal/mol]       23.267 [kJ/mol]       0.00886191 [Eh]        1944.964 [cm^-1]
  Correction ZPE            5.561 [kcal/mol]       23.267 [kJ/mol]       0.00886191 [Eh]        1944.964 [cm^-1]
  Total ZPE, Electronic energy at 0 [K]                               -552.97203169 [Eh]

  Thermal Energy, E (includes ZPE)
    Electronic E            0.000 [kcal/mol]        0.000 [kJ/mol]       0.00000000 [Eh]
    Translational E         0.889 [kcal/mol]        3.718 [kJ/mol]       0.00141628 [Eh]
    Rotational E            0.592 [kcal/mol]        2.479 [kJ/mol]       0.00094418 [Eh]
    Vibrational E           6.031 [kcal/mol]       25.233 [kJ/mol]       0.00961070 [Eh]
  Correction E              7.512 [kcal/mol]       31.430 [kJ/mol]       0.01197116 [Eh]
  Total E, Electronic energy at  298.15 [K]                           -552.96892244 [Eh]

  Enthalpy, H_trans = E_trans + k_B * T
    Electronic H            0.000 [kcal/mol]        0.000 [kJ/mol]       0.00000000 [Eh]
    Translational H         1.481 [kcal/mol]        6.197 [kJ/mol]       0.00236046 [Eh]
    Rotational H            0.592 [kcal/mol]        2.479 [kJ/mol]       0.00094418 [Eh]
    Vibrational H           6.031 [kcal/mol]       25.233 [kJ/mol]       0.00961070 [Eh]
  Correction H              8.105 [kcal/mol]       33.909 [kJ/mol]       0.01291535 [Eh]
  Total H, Enthalpy at  298.15 [K]                                    -552.96797825 [Eh]

  Gibbs free energy, G = H - T * S
    Electronic G            0.000 [kcal/mol]        0.000 [kJ/mol]       0.00000000 [Eh]
    Translational G        -9.921 [kcal/mol]      -41.509 [kJ/mol]      -0.01581013 [Eh]
    Rotational G           -4.112 [kcal/mol]      -17.204 [kJ/mol]      -0.00655257 [Eh]
    Vibrational G           5.339 [kcal/mol]       22.338 [kJ/mol]       0.00850821 [Eh]
  Correction G             -8.694 [kcal/mol]      -36.375 [kJ/mol]      -0.01385449 [Eh]
  Total G, Free enthalpy at  298.15 [K]                               -552.99474809 [Eh]

*** Psi4 exiting successfully. Buy a developer a beer!
