                               Psi4 1.3.2 release

  ==> Input File <==

--------------------------------------------------------------------------
memory 144 GB

molecule {
0 1
Cl 0.0000000000 0.0000000000 0.0000000000
F 0.0000000000 0.0000000000 1.6318233300
}

set dynamic_level 1
set basis aug-cc-pV(Q+d)Z

optimize("wB97X-V")
frequencies("wB97X-V")
--------------------------------------------------------------------------

    Molecular point group: c2v
  Charge       = 0
  Multiplicity = 1
  Basis Set: AUG-CC-PV(Q+D)Z
    Blend: AUG-CC-PV(Q+D)Z
  Basis Set: (AUG-CC-PV(Q+D)Z AUX)
    Blend: AUG-CC-PVQZ-JKFIT
  @DF-RKS Final Energy:  -559.92834865136012
    Total Energy =                       -559.9283486513601247
    Molecular point group: c2v
  Basis Set: AUG-CC-PV(Q+D)Z
    Blend: AUG-CC-PV(Q+D)Z
  Basis Set: (AUG-CC-PV(Q+D)Z AUX)
    Blend: AUG-CC-PVQZ-JKFIT
  @DF-RKS Final Energy:  -559.92833780320063
    Total Energy =                       -559.9283378032005203
  Basis Set: AUG-CC-PV(Q+D)Z
    Blend: AUG-CC-PV(Q+D)Z
  Basis Set: (AUG-CC-PV(Q+D)Z AUX)
    Blend: AUG-CC-PVQZ-JKFIT
  @DF-RKS Final Energy:  -559.92835887223521
    Total Energy =                       -559.9283588722354352
  Basis Set: AUG-CC-PV(Q+D)Z
    Blend: AUG-CC-PV(Q+D)Z
  Basis Set: (AUG-CC-PV(Q+D)Z AUX)
    Blend: AUG-CC-PVQZ-JKFIT
  @DF-RKS Final Energy:  -559.92842742811717
    Total Energy =                       -559.9284274281171747
  @DF-RKS Final Energy:  -559.92842385905658
    Total Energy =                       -559.9284238590565792
  @DF-RKS Final Energy:  -559.92843034225007
    Total Energy =                       -559.9284303422500670
  @DF-RKS Final Energy:  -559.92843539926309
    Total Energy =                       -559.9284353992630940
  @DF-RKS Final Energy:  -559.92843517051256
    Total Energy =                       -559.9284351705124436
  @DF-RKS Final Energy:  -559.92843495959164
    Total Energy =                       -559.9284349595916410
  **** Optimization is complete! (in 3 steps) ****
    Final optimized geometry and variables:
  @DF-RKS Final Energy:  -559.92843539926366
    Total Energy =                       -559.9284353992636625
  @DF-RKS Final Energy:  -559.92843517028166
    Total Energy =                       -559.9284351702816593
  Basis Set: AUG-CC-PV(Q+D)Z
    Blend: AUG-CC-PV(Q+D)Z
  Basis Set: (AUG-CC-PV(Q+D)Z AUX)
    Blend: AUG-CC-PVQZ-JKFIT
  @DF-RKS Final Energy:  -559.92843495899365
    Total Energy =                       -559.9284349589936483
  Basis Set: AUG-CC-PV(Q+D)Z
    Blend: AUG-CC-PV(Q+D)Z
  Basis Set: (AUG-CC-PV(Q+D)Z AUX)
    Blend: AUG-CC-PVQZ-JKFIT
  @DF-RKS Final Energy:  -559.92843539926378
    Total Energy =                       -559.9284353992637762
  Multiplicity = 1
  Basis Set: AUG-CC-PV(Q+D)Z
    Blend: AUG-CC-PV(Q+D)Z
  Basis Set: (AUG-CC-PV(Q+D)Z AUX)
    Blend: AUG-CC-PVQZ-JKFIT
  @DF-RKS Final Energy:  -559.92843517028177
    Total Energy =                       -559.9284351702816593
    Molecular point group: c2v

    Geometry (in Angstrom), charge = 0, multiplicity = 1:

       Center              X                  Y                   Z               Mass
    ------------   -----------------  -----------------  -----------------  -----------------
         CL           0.000000000000     0.000000000000    -0.569826479161    34.968852682000
         F            0.000000000000     0.000000000000     1.048834369573    18.998403162730

  Charge       = 0
  Multiplicity = 1
  Basis Set: AUG-CC-PV(Q+D)Z
    Blend: AUG-CC-PV(Q+D)Z
  Basis Set: (AUG-CC-PV(Q+D)Z AUX)
    Blend: AUG-CC-PVQZ-JKFIT

    Orbital Energies [Eh]
    ---------------------

    Doubly Occupied:

       1A1  -101.636885     2A1   -24.816272     3A1    -9.646783
       4A1    -7.409850     1B1    -7.391068     1B2    -7.391068
       5A1    -1.380708     6A1    -0.964504     7A1    -0.649460
       2B1    -0.612056     2B2    -0.612056     3B1    -0.440372
       3B2    -0.440372

  @DF-RKS Final Energy:  -559.92843495899410

   => Energetics <=

    Nuclear Repulsion Energy =             50.0191953712032671
    One-Electron Energy =                -873.4677615303763787
    Two-Electron Energy =                 292.2983854714724998
    DFT Exchange-Correlation Energy =     -28.8881053852998484
    Empirical Dispersion Energy =           0.0000000000000000
    VV10 Nonlocal Energy =                  0.1098511140063835
    Total Energy =                       -559.9284349589941030

  Dipole Moment: [D]
     X:     0.0000      Y:     0.0000      Z:    -0.8378     Total:     0.8378

  Vibration                       6
  Freq [cm^-1]                 841.0639
  Irrep                           A1
  Reduced mass [u]             22.6381
  Force const [mDyne/A]         9.4351

  ==> Thermochemistry Components <==

  Entropy, S
    Electronic S            0.000 [cal/(mol K)]        0.000 [J/(mol K)]       0.00000000 [mEh/K] (multiplicity = 1)
    Translational S        37.879 [cal/(mol K)]      158.488 [J/(mol K)]       0.06036475 [mEh/K] (mol. weight = 53.9673 [u], P = 101325.00 [Pa])
    Rotational S           13.878 [cal/(mol K)]       58.065 [J/(mol K)]       0.02211563 [mEh/K] (symmetry no. = 1)
    Vibrational S           0.176 [cal/(mol K)]        0.738 [J/(mol K)]       0.00028107 [mEh/K]
  Total S                  51.934 [cal/(mol K)]      217.290 [J/(mol K)]       0.08276144 [mEh/K]
  Correction S              0.000 [cal/(mol K)]        0.000 [J/(mol K)]       0.00000000 [mEh/K]

  Constant volume heat capacity, Cv
    Electronic Cv           0.000 [cal/(mol K)]        0.000 [J/(mol K)]       0.00000000 [mEh/K]
    Translational Cv        2.981 [cal/(mol K)]       12.472 [J/(mol K)]       0.00475022 [mEh/K]
    Rotational Cv           1.987 [cal/(mol K)]        8.314 [J/(mol K)]       0.00316681 [mEh/K]
    Vibrational Cv          0.585 [cal/(mol K)]        2.449 [J/(mol K)]       0.00093294 [mEh/K]
  Total Cv                  5.553 [cal/(mol K)]       23.236 [J/(mol K)]       0.00884997 [mEh/K]
  Correction Cv             0.000 [cal/(mol K)]        0.000 [J/(mol K)]       0.00000000 [mEh/K]

  Constant pressure heat capacity, Cp
    Electronic Cp           0.000 [cal/(mol K)]        0.000 [J/(mol K)]       0.00000000 [mEh/K]
    Translational Cp        4.968 [cal/(mol K)]       20.786 [J/(mol K)]       0.00791703 [mEh/K]
    Rotational Cp           1.987 [cal/(mol K)]        8.314 [J/(mol K)]       0.00316681 [mEh/K]
    Vibrational Cp          0.585 [cal/(mol K)]        2.449 [J/(mol K)]       0.00093294 [mEh/K]
  Total Cp                  7.541 [cal/(mol K)]       31.550 [J/(mol K)]       0.01201678 [mEh/K]
  Correction Cp             0.000 [cal/(mol K)]        0.000 [J/(mol K)]       0.00000000 [mEh/K]

  ==> Thermochemistry Energy Analysis <==

  Raw electronic energy, E0
  Total E0, Electronic energy at well bottom at 0 [K]                 -559.92843540 [Eh]

  Zero-point energy, ZPE_vib = Sum_i nu_i / 2
    Electronic ZPE          0.000 [kcal/mol]        0.000 [kJ/mol]       0.00000000 [Eh]
    Translational ZPE       0.000 [kcal/mol]        0.000 [kJ/mol]       0.00000000 [Eh]
    Rotational ZPE          0.000 [kcal/mol]        0.000 [kJ/mol]       0.00000000 [Eh]
    Vibrational ZPE         1.202 [kcal/mol]        5.031 [kJ/mol]       0.00191608 [Eh]         420.532 [cm^-1]
  Correction ZPE            1.202 [kcal/mol]        5.031 [kJ/mol]       0.00191608 [Eh]         420.532 [cm^-1]
  Total ZPE, Electronic energy at 0 [K]                               -559.92651931 [Eh]

  Thermal Energy, E (includes ZPE)
    Electronic E            0.000 [kcal/mol]        0.000 [kJ/mol]       0.00000000 [Eh]
    Translational E         0.889 [kcal/mol]        3.718 [kJ/mol]       0.00141628 [Eh]
    Rotational E            0.592 [kcal/mol]        2.479 [kJ/mol]       0.00094418 [Eh]
    Vibrational E           1.245 [kcal/mol]        5.208 [kJ/mol]       0.00198343 [Eh]
  Correction E              2.726 [kcal/mol]       11.405 [kJ/mol]       0.00434390 [Eh]
  Total E, Electronic energy at  298.15 [K]                           -559.92409150 [Eh]

  Enthalpy, H_trans = E_trans + k_B * T
    Electronic H            0.000 [kcal/mol]        0.000 [kJ/mol]       0.00000000 [Eh]
    Translational H         1.481 [kcal/mol]        6.197 [kJ/mol]       0.00236046 [Eh]
    Rotational H            0.592 [kcal/mol]        2.479 [kJ/mol]       0.00094418 [Eh]
    Vibrational H           1.245 [kcal/mol]        5.208 [kJ/mol]       0.00198343 [Eh]
  Correction H              3.318 [kcal/mol]       13.884 [kJ/mol]       0.00528808 [Eh]
  Total H, Enthalpy at  298.15 [K]                                    -559.92314732 [Eh]

  Gibbs free energy, G = H - T * S
    Electronic G            0.000 [kcal/mol]        0.000 [kJ/mol]       0.00000000 [Eh]
    Translational G        -9.813 [kcal/mol]      -41.056 [kJ/mol]      -0.01563729 [Eh]
    Rotational G           -3.545 [kcal/mol]      -14.833 [kJ/mol]      -0.00564959 [Eh]
    Vibrational G           1.192 [kcal/mol]        4.987 [kJ/mol]       0.00189963 [Eh]
  Correction G            -12.166 [kcal/mol]      -50.901 [kJ/mol]      -0.01938724 [Eh]
  Total G, Free enthalpy at  298.15 [K]                               -559.94782264 [Eh]

*** Psi4 exiting successfully. Buy a developer a beer!
