                               Psi4 1.3.2 release

  ==> Input File <==

--------------------------------------------------------------------------
memory 144 GB

molecule {
0 1
C 0.0000000000 0.0000000000 0.0000000000
O 0.0000000000 0.0000000000 1.1626000000
O 0.0000000000 0.0000000000 -1.1626000000
}

set dynamic_level 1
set basis aug-cc-pV(Q+d)Z

optimize("wB97X-V")
frequencies("wB97X-V")
--------------------------------------------------------------------------

    Molecular point group: d2h
  Charge       = 0
  Multiplicity = 1
  Basis Set: AUG-CC-PV(Q+D)Z
    Blend: AUG-CC-PV(Q+D)Z
  Basis Set: (AUG-CC-PV(Q+D)Z AUX)
    Blend: AUG-CC-PVQZ-JKFIT
  @DF-RKS Final Energy:  -188.61137963984780
    Total Energy =                       -188.6113796398477973
    Molecular point group: d2h
  Basis Set: AUG-CC-PV(Q+D)Z
    Blend: AUG-CC-PV(Q+D)Z
  Basis Set: (AUG-CC-PV(Q+D)Z AUX)
    Blend: AUG-CC-PVQZ-JKFIT
  @DF-RKS Final Energy:  -188.61139435738448
    Total Energy =                       -188.6113943573844836
  Basis Set: AUG-CC-PV(Q+D)Z
    Blend: AUG-CC-PV(Q+D)Z
  Basis Set: (AUG-CC-PV(Q+D)Z AUX)
    Blend: AUG-CC-PVQZ-JKFIT
  @DF-RKS Final Energy:  -188.61136313919309
    Total Energy =                       -188.6113631391930880
  Basis Set: AUG-CC-PV(Q+D)Z
    Blend: AUG-CC-PV(Q+D)Z
  Basis Set: (AUG-CC-PV(Q+D)Z AUX)
    Blend: AUG-CC-PVQZ-JKFIT
  @DF-RKS Final Energy:  -188.61144686013174
    Total Energy =                       -188.6114468601317355
  @DF-RKS Final Energy:  -188.61144725027694
    Total Energy =                       -188.6114472502769388
  @DF-RKS Final Energy:  -188.61144463839625
    Total Energy =                       -188.6114446383962502
  @DF-RKS Final Energy:  -188.61144732510039
    Total Energy =                       -188.6114473251004142
  @DF-RKS Final Energy:  -188.61144639366540
    Total Energy =                       -188.6114463936654033
  @DF-RKS Final Energy:  -188.61144642678991
    Total Energy =                       -188.6114464267899393
  **** Optimization is complete! (in 3 steps) ****
    Final optimized geometry and variables:
  @DF-RKS Final Energy:  -188.61144732510047
    Total Energy =                       -188.6114473251004995
  @DF-RKS Final Energy:  -188.61144639366552
    Total Energy =                       -188.6114463936655170
  @DF-RKS Final Energy:  -188.61144642678977
    Total Energy =                       -188.6114464267897688
  @DF-RKS Final Energy:  -188.61144732510022
    Total Energy =                       -188.6114473251002153
  @DF-RKS Final Energy:  -188.61144639366535
    Total Energy =                       -188.6114463936653465
  Basis Set: AUG-CC-PV(Q+D)Z
    Blend: AUG-CC-PV(Q+D)Z
  Basis Set: (AUG-CC-PV(Q+D)Z AUX)
    Blend: AUG-CC-PVQZ-JKFIT
  @DF-RKS Final Energy:  -188.61144642679000
    Total Energy =                       -188.6114464267899962
  Basis Set: AUG-CC-PV(Q+D)Z
    Blend: AUG-CC-PV(Q+D)Z
  Basis Set: (AUG-CC-PV(Q+D)Z AUX)
    Blend: AUG-CC-PVQZ-JKFIT
  @DF-RKS Final Energy:  -188.61144454005802
    Total Energy =                       -188.6114445400580450
  Multiplicity = 1
  Basis Set: AUG-CC-PV(Q+D)Z
    Blend: AUG-CC-PV(Q+D)Z
  Basis Set: (AUG-CC-PV(Q+D)Z AUX)
    Blend: AUG-CC-PVQZ-JKFIT
  @DF-RKS Final Energy:  -188.61144711029618
    Total Energy =                       -188.6114471102961545
    Molecular point group: c2v

    Geometry (in Angstrom), charge = 0, multiplicity = 1:

       Center              X                  Y                   Z               Mass
    ------------   -----------------  -----------------  -----------------  -----------------
         C           -0.000651343880     0.000000000000     0.000000000000    12.000000000000
         O            0.000244331612     0.000000000000     1.158557516678    15.994914619570
         O            0.000244331612     0.000000000000    -1.158557516678    15.994914619570

  Charge       = 0
  Multiplicity = 1
  Basis Set: AUG-CC-PV(Q+D)Z
    Blend: AUG-CC-PV(Q+D)Z
  Basis Set: (AUG-CC-PV(Q+D)Z AUX)
    Blend: AUG-CC-PVQZ-JKFIT

    Orbital Energies [Eh]
    ---------------------

    Doubly Occupied:

       1B2   -19.295649     1A1   -19.295612     2A1   -10.462417
       3A1    -1.300410     2B2    -1.255892     4A1    -0.686671
       1B1    -0.642298     5A1    -0.642298     3B2    -0.639649
       1A2    -0.483534     4B2    -0.483534

  @DF-RKS Final Energy:  -188.61144710804280

   => Energetics <=

    Nuclear Repulsion Energy =             58.4646569629811665
    One-Electron Energy =                -372.9689254586995730
    Two-Electron Energy =                 141.8737281192742898
    DFT Exchange-Correlation Energy =     -16.0726744330782125
    Empirical Dispersion Energy =           0.0000000000000000
    VV10 Nonlocal Energy =                  0.0917677014795303
    Total Energy =                       -188.6114471080427961

  Dipole Moment: [D]
     X:    -0.0023      Y:     0.0000      Z:     0.0000     Total:     0.0023

  Vibration                       6                   7                   8
  Freq [cm^-1]                 673.8613            677.3866           1390.6876
  Irrep                          B2u                 B3u                  Ag
  Reduced mass [u]             12.8774             12.8774             15.9949
  Force const [mDyne/A]         3.4452              3.4814             18.2260

  Vibration                       9
  Freq [cm^-1]                2426.4154
  Irrep                          B1u
  Reduced mass [u]             12.8774
  Force const [mDyne/A]        44.6691

  ==> Thermochemistry Components <==

  Entropy, S
    Electronic S            0.000 [cal/(mol K)]        0.000 [J/(mol K)]       0.00000000 [mEh/K] (multiplicity = 1)
    Translational S        37.270 [cal/(mol K)]      155.938 [J/(mol K)]       0.05939371 [mEh/K] (mol. weight = 43.9898 [u], P = 101325.00 [Pa])
    Rotational S           13.067 [cal/(mol K)]       54.673 [J/(mol K)]       0.02082375 [mEh/K] (symmetry no. = 2)
    Vibrational S           0.692 [cal/(mol K)]        2.893 [J/(mol K)]       0.00110202 [mEh/K]
  Total S                  51.029 [cal/(mol K)]      213.504 [J/(mol K)]       0.08131948 [mEh/K]
  Correction S              0.000 [cal/(mol K)]        0.000 [J/(mol K)]       0.00000000 [mEh/K]

  Constant volume heat capacity, Cv
    Electronic Cv           0.000 [cal/(mol K)]        0.000 [J/(mol K)]       0.00000000 [mEh/K]
    Translational Cv        2.981 [cal/(mol K)]       12.472 [J/(mol K)]       0.00475022 [mEh/K]
    Rotational Cv           1.987 [cal/(mol K)]        8.314 [J/(mol K)]       0.00316681 [mEh/K]
    Vibrational Cv          1.865 [cal/(mol K)]        7.802 [J/(mol K)]       0.00297158 [mEh/K]
  Total Cv                  6.833 [cal/(mol K)]       28.588 [J/(mol K)]       0.01088861 [mEh/K]
  Correction Cv             0.000 [cal/(mol K)]        0.000 [J/(mol K)]       0.00000000 [mEh/K]

  Constant pressure heat capacity, Cp
    Electronic Cp           0.000 [cal/(mol K)]        0.000 [J/(mol K)]       0.00000000 [mEh/K]
    Translational Cp        4.968 [cal/(mol K)]       20.786 [J/(mol K)]       0.00791703 [mEh/K]
    Rotational Cp           1.987 [cal/(mol K)]        8.314 [J/(mol K)]       0.00316681 [mEh/K]
    Vibrational Cp          1.865 [cal/(mol K)]        7.802 [J/(mol K)]       0.00297158 [mEh/K]
  Total Cp                  8.820 [cal/(mol K)]       36.903 [J/(mol K)]       0.01405542 [mEh/K]
  Correction Cp             0.000 [cal/(mol K)]        0.000 [J/(mol K)]       0.00000000 [mEh/K]

  ==> Thermochemistry Energy Analysis <==

  Raw electronic energy, E0
  Total E0, Electronic energy at well bottom at 0 [K]                 -188.61144733 [Eh]

  Zero-point energy, ZPE_vib = Sum_i nu_i / 2
    Electronic ZPE          0.000 [kcal/mol]        0.000 [kJ/mol]       0.00000000 [Eh]
    Translational ZPE       0.000 [kcal/mol]        0.000 [kJ/mol]       0.00000000 [Eh]
    Rotational ZPE          0.000 [kcal/mol]        0.000 [kJ/mol]       0.00000000 [Eh]
    Vibrational ZPE         7.389 [kcal/mol]       30.914 [kJ/mol]       0.01177437 [Eh]        2584.175 [cm^-1]
  Correction ZPE            7.389 [kcal/mol]       30.914 [kJ/mol]       0.01177437 [Eh]        2584.175 [cm^-1]
  Total ZPE, Electronic energy at 0 [K]                               -188.59967296 [Eh]

  Thermal Energy, E (includes ZPE)
    Electronic E            0.000 [kcal/mol]        0.000 [kJ/mol]       0.00000000 [Eh]
    Translational E         0.889 [kcal/mol]        3.718 [kJ/mol]       0.00141628 [Eh]
    Rotational E            0.592 [kcal/mol]        2.479 [kJ/mol]       0.00094418 [Eh]
    Vibrational E           7.548 [kcal/mol]       31.579 [kJ/mol]       0.01202788 [Eh]
  Correction E              9.029 [kcal/mol]       37.777 [kJ/mol]       0.01438834 [Eh]
  Total E, Electronic energy at  298.15 [K]                           -188.59705898 [Eh]

  Enthalpy, H_trans = E_trans + k_B * T
    Electronic H            0.000 [kcal/mol]        0.000 [kJ/mol]       0.00000000 [Eh]
    Translational H         1.481 [kcal/mol]        6.197 [kJ/mol]       0.00236046 [Eh]
    Rotational H            0.592 [kcal/mol]        2.479 [kJ/mol]       0.00094418 [Eh]
    Vibrational H           7.548 [kcal/mol]       31.579 [kJ/mol]       0.01202788 [Eh]
  Correction H              9.621 [kcal/mol]       40.256 [kJ/mol]       0.01533253 [Eh]
  Total H, Enthalpy at  298.15 [K]                                    -188.59611480 [Eh]

  Gibbs free energy, G = H - T * S
    Electronic G            0.000 [kcal/mol]        0.000 [kJ/mol]       0.00000000 [Eh]
    Translational G        -9.631 [kcal/mol]      -40.296 [kJ/mol]      -0.01534777 [Eh]
    Rotational G           -3.303 [kcal/mol]      -13.822 [kJ/mol]      -0.00526442 [Eh]
    Vibrational G           7.341 [kcal/mol]       30.717 [kJ/mol]       0.01169932 [Eh]
  Correction G             -5.593 [kcal/mol]      -23.401 [kJ/mol]      -0.00891288 [Eh]
  Total G, Free enthalpy at  298.15 [K]                               -188.62036020 [Eh]

*** Psi4 exiting successfully. Buy a developer a beer!
