                               Psi4 1.3.2 release

  ==> Input File <==

--------------------------------------------------------------------------
memory 144 GB

molecule {
0 1
C 0.0000000000 0.0000000000 0.0000000000
O 0.0000000000 0.0000000000 1.1314000000
}

set dynamic_level 1
set basis aug-cc-pV(Q+d)Z

optimize("wB97X-V")
frequencies("wB97X-V")
--------------------------------------------------------------------------

    Molecular point group: c2v
  Charge       = 0
  Multiplicity = 1
  Basis Set: AUG-CC-PV(Q+D)Z
    Blend: AUG-CC-PV(Q+D)Z
  Basis Set: (AUG-CC-PV(Q+D)Z AUX)
    Blend: AUG-CC-PVQZ-JKFIT
  @DF-RKS Final Energy:  -113.32983619392388
    Total Energy =                       -113.3298361939238816
    Molecular point group: c2v
  Basis Set: AUG-CC-PV(Q+D)Z
    Blend: AUG-CC-PV(Q+D)Z
  Basis Set: (AUG-CC-PV(Q+D)Z AUX)
    Blend: AUG-CC-PVQZ-JKFIT
  @DF-RKS Final Energy:  -113.32980417782284
    Total Energy =                       -113.3298041778228225
  Basis Set: AUG-CC-PV(Q+D)Z
    Blend: AUG-CC-PV(Q+D)Z
  Basis Set: (AUG-CC-PV(Q+D)Z AUX)
    Blend: AUG-CC-PVQZ-JKFIT
  @DF-RKS Final Energy:  -113.32986367849198
    Total Energy =                       -113.3298636784919751
  Basis Set: AUG-CC-PV(Q+D)Z
    Blend: AUG-CC-PV(Q+D)Z
  Basis Set: (AUG-CC-PV(Q+D)Z AUX)
    Blend: AUG-CC-PVQZ-JKFIT
  @DF-RKS Final Energy:  -113.32993039921305
    Total Energy =                       -113.3299303992130547
  @DF-RKS Final Energy:  -113.32992367264906
    Total Energy =                       -113.3299236726490591
  @DF-RKS Final Energy:  -113.32993241743807
    Total Energy =                       -113.3299324174380729
  @DF-RKS Final Energy:  -113.32993242818640
    Total Energy =                       -113.3299324281863960
  @DF-RKS Final Energy:  -113.32993015769472
    Total Energy =                       -113.3299301576947187
  @DF-RKS Final Energy:  -113.32992995992998
    Total Energy =                       -113.3299299599299985
  **** Optimization is complete! (in 3 steps) ****
    Final optimized geometry and variables:
  @DF-RKS Final Energy:  -113.32993242818630
    Total Energy =                       -113.3299324281862823
  @DF-RKS Final Energy:  -113.32993015808131
    Total Energy =                       -113.3299301580813108
  Basis Set: AUG-CC-PV(Q+D)Z
    Blend: AUG-CC-PV(Q+D)Z
  Basis Set: (AUG-CC-PV(Q+D)Z AUX)
    Blend: AUG-CC-PVQZ-JKFIT
  @DF-RKS Final Energy:  -113.32992995992984
    Total Energy =                       -113.3299299599298280
  Basis Set: AUG-CC-PV(Q+D)Z
    Blend: AUG-CC-PV(Q+D)Z
  Basis Set: (AUG-CC-PV(Q+D)Z AUX)
    Blend: AUG-CC-PVQZ-JKFIT
  @DF-RKS Final Energy:  -113.32993242818652
    Total Energy =                       -113.3299324281865239
  Multiplicity = 1
  Basis Set: AUG-CC-PV(Q+D)Z
    Blend: AUG-CC-PV(Q+D)Z
  Basis Set: (AUG-CC-PV(Q+D)Z AUX)
    Blend: AUG-CC-PVQZ-JKFIT
  @DF-RKS Final Energy:  -113.32993015808164
    Total Energy =                       -113.3299301580816376
    Molecular point group: c2v

    Geometry (in Angstrom), charge = 0, multiplicity = 1:

       Center              X                  Y                   Z               Mass
    ------------   -----------------  -----------------  -----------------  -----------------
         C            0.000000000000     0.000000000000    -0.642130636320    12.000000000000
         O            0.000000000000     0.000000000000     0.481751095215    15.994914619570

  Charge       = 0
  Multiplicity = 1
  Basis Set: AUG-CC-PV(Q+D)Z
    Blend: AUG-CC-PV(Q+D)Z
  Basis Set: (AUG-CC-PV(Q+D)Z AUX)
    Blend: AUG-CC-PVQZ-JKFIT

    Orbital Energies [Eh]
    ---------------------

    Doubly Occupied:

       1A1   -19.319137     2A1   -10.386572     3A1    -1.298697
       4A1    -0.696756     1B1    -0.592315     1B2    -0.592315
       5A1    -0.492930

  @DF-RKS Final Energy:  -113.32992995993004

   => Energetics <=

    Nuclear Repulsion Energy =             22.6006931151603041
    One-Electron Energy =                -198.4785371022478841
    Two-Electron Energy =                  72.3406003039539200
    DFT Exchange-Correlation Energy =      -9.8518195563414004
    Empirical Dispersion Energy =           0.0000000000000000
    VV10 Nonlocal Energy =                  0.0591332795450094
    Total Energy =                       -113.3299299599300412

  Dipole Moment: [D]
     X:     0.0000      Y:     0.0000      Z:     0.0936     Total:     0.0936

  Vibration                       6
  Freq [cm^-1]                2237.9396
  Irrep                           A1
  Reduced mass [u]             13.4388
  Force const [mDyne/A]        39.6557

  ==> Thermochemistry Components <==

  Entropy, S
    Electronic S            0.000 [cal/(mol K)]        0.000 [J/(mol K)]       0.00000000 [mEh/K] (multiplicity = 1)
    Translational S        35.923 [cal/(mol K)]      150.302 [J/(mol K)]       0.05724692 [mEh/K] (mol. weight = 27.9949 [u], P = 101325.00 [Pa])
    Rotational S           11.267 [cal/(mol K)]       47.139 [J/(mol K)]       0.01795432 [mEh/K] (symmetry no. = 1)
    Vibrational S           0.000 [cal/(mol K)]        0.002 [J/(mol K)]       0.00000076 [mEh/K]
  Total S                  47.190 [cal/(mol K)]      197.443 [J/(mol K)]       0.07520201 [mEh/K]
  Correction S              0.000 [cal/(mol K)]        0.000 [J/(mol K)]       0.00000000 [mEh/K]

  Constant volume heat capacity, Cv
    Electronic Cv           0.000 [cal/(mol K)]        0.000 [J/(mol K)]       0.00000000 [mEh/K]
    Translational Cv        2.981 [cal/(mol K)]       12.472 [J/(mol K)]       0.00475022 [mEh/K]
    Rotational Cv           1.987 [cal/(mol K)]        8.314 [J/(mol K)]       0.00316681 [mEh/K]
    Vibrational Cv          0.005 [cal/(mol K)]        0.020 [J/(mol K)]       0.00000754 [mEh/K]
  Total Cv                  4.973 [cal/(mol K)]       20.806 [J/(mol K)]       0.00792456 [mEh/K]
  Correction Cv             0.000 [cal/(mol K)]        0.000 [J/(mol K)]       0.00000000 [mEh/K]

  Constant pressure heat capacity, Cp
    Electronic Cp           0.000 [cal/(mol K)]        0.000 [J/(mol K)]       0.00000000 [mEh/K]
    Translational Cp        4.968 [cal/(mol K)]       20.786 [J/(mol K)]       0.00791703 [mEh/K]
    Rotational Cp           1.987 [cal/(mol K)]        8.314 [J/(mol K)]       0.00316681 [mEh/K]
    Vibrational Cp          0.005 [cal/(mol K)]        0.020 [J/(mol K)]       0.00000754 [mEh/K]
  Total Cp                  6.960 [cal/(mol K)]       29.120 [J/(mol K)]       0.01109137 [mEh/K]
  Correction Cp             0.000 [cal/(mol K)]        0.000 [J/(mol K)]       0.00000000 [mEh/K]

  ==> Thermochemistry Energy Analysis <==

  Raw electronic energy, E0
  Total E0, Electronic energy at well bottom at 0 [K]                 -113.32993243 [Eh]

  Zero-point energy, ZPE_vib = Sum_i nu_i / 2
    Electronic ZPE          0.000 [kcal/mol]        0.000 [kJ/mol]       0.00000000 [Eh]
    Translational ZPE       0.000 [kcal/mol]        0.000 [kJ/mol]       0.00000000 [Eh]
    Rotational ZPE          0.000 [kcal/mol]        0.000 [kJ/mol]       0.00000000 [Eh]
    Vibrational ZPE         3.199 [kcal/mol]       13.386 [kJ/mol]       0.00509840 [Eh]        1118.970 [cm^-1]
  Correction ZPE            3.199 [kcal/mol]       13.386 [kJ/mol]       0.00509840 [Eh]        1118.970 [cm^-1]
  Total ZPE, Electronic energy at 0 [K]                               -113.32483403 [Eh]

  Thermal Energy, E (includes ZPE)
    Electronic E            0.000 [kcal/mol]        0.000 [kJ/mol]       0.00000000 [Eh]
    Translational E         0.889 [kcal/mol]        3.718 [kJ/mol]       0.00141628 [Eh]
    Rotational E            0.592 [kcal/mol]        2.479 [kJ/mol]       0.00094418 [Eh]
    Vibrational E           3.199 [kcal/mol]       13.386 [kJ/mol]       0.00509861 [Eh]
  Correction E              4.681 [kcal/mol]       19.584 [kJ/mol]       0.00745907 [Eh]
  Total E, Electronic energy at  298.15 [K]                           -113.32247336 [Eh]

  Enthalpy, H_trans = E_trans + k_B * T
    Electronic H            0.000 [kcal/mol]        0.000 [kJ/mol]       0.00000000 [Eh]
    Translational H         1.481 [kcal/mol]        6.197 [kJ/mol]       0.00236046 [Eh]
    Rotational H            0.592 [kcal/mol]        2.479 [kJ/mol]       0.00094418 [Eh]
    Vibrational H           3.199 [kcal/mol]       13.386 [kJ/mol]       0.00509861 [Eh]
  Correction H              5.273 [kcal/mol]       22.063 [kJ/mol]       0.00840326 [Eh]
  Total H, Enthalpy at  298.15 [K]                                    -113.32152917 [Eh]

  Gibbs free energy, G = H - T * S
    Electronic G            0.000 [kcal/mol]        0.000 [kJ/mol]       0.00000000 [Eh]
    Translational G        -9.229 [kcal/mol]      -38.615 [kJ/mol]      -0.01470771 [Eh]
    Rotational G           -2.767 [kcal/mol]      -11.576 [kJ/mol]      -0.00440890 [Eh]
    Vibrational G           3.199 [kcal/mol]       13.386 [kJ/mol]       0.00509838 [Eh]
  Correction G             -8.797 [kcal/mol]      -36.805 [kJ/mol]      -0.01401822 [Eh]
  Total G, Free enthalpy at  298.15 [K]                               -113.34395065 [Eh]

*** Psi4 exiting successfully. Buy a developer a beer!
