                               Psi4 1.3.2 release

  ==> Input File <==

--------------------------------------------------------------------------
memory 144 GB

molecule {
0 1
C 0.0000000000 0.0000000000 0.0000000000
S 0.0000000000 0.0000000000 1.5576337400
S 0.0000000000 0.0000000000 -1.5576337400
}

set dynamic_level 1
set basis aug-cc-pV(Q+d)Z

optimize("wB97X-V")
frequencies("wB97X-V")
--------------------------------------------------------------------------

    Molecular point group: d2h
  Charge       = 0
  Multiplicity = 1
  Basis Set: AUG-CC-PV(Q+D)Z
    Blend: AUG-CC-PV(Q+D)Z
  Basis Set: (AUG-CC-PV(Q+D)Z AUX)
    Blend: AUG-CC-PVQZ-JKFIT
  @DF-RKS Final Energy:  -834.40585309109258
    Total Energy =                       -834.4058530910926947
    Molecular point group: d2h
  Basis Set: AUG-CC-PV(Q+D)Z
    Blend: AUG-CC-PV(Q+D)Z
  Basis Set: (AUG-CC-PV(Q+D)Z AUX)
    Blend: AUG-CC-PVQZ-JKFIT
  @DF-RKS Final Energy:  -834.40586803340932
    Total Energy =                       -834.4058680334093197
  Basis Set: AUG-CC-PV(Q+D)Z
    Blend: AUG-CC-PV(Q+D)Z
  Basis Set: (AUG-CC-PV(Q+D)Z AUX)
    Blend: AUG-CC-PVQZ-JKFIT
  @DF-RKS Final Energy:  -834.40583773795174
    Total Energy =                       -834.4058377379518561
  Basis Set: AUG-CC-PV(Q+D)Z
    Blend: AUG-CC-PV(Q+D)Z
  Basis Set: (AUG-CC-PV(Q+D)Z AUX)
    Blend: AUG-CC-PVQZ-JKFIT
  @DF-RKS Final Energy:  -834.40610905643393
    Total Energy =                       -834.4061090564339338
  @DF-RKS Final Energy:  -834.40610950251107
    Total Energy =                       -834.4061095025111854
  @DF-RKS Final Energy:  -834.40610815660807
    Total Energy =                       -834.4061081566079565
  @DF-RKS Final Energy:  -834.40610956562989
    Total Energy =                       -834.4061095656298903
  @DF-RKS Final Energy:  -834.40610931737490
    Total Energy =                       -834.4061093173750123
  @DF-RKS Final Energy:  -834.40610935507971
    Total Energy =                       -834.4061093550797068
  **** Optimization is complete! (in 3 steps) ****
    Final optimized geometry and variables:
  @DF-RKS Final Energy:  -834.40610956563046
    Total Energy =                       -834.4061095656304587
  @DF-RKS Final Energy:  -834.40610931737649
    Total Energy =                       -834.4061093173763766
  @DF-RKS Final Energy:  -834.40610935508062
    Total Energy =                       -834.4061093550806163
  @DF-RKS Final Energy:  -834.40610956563046
    Total Energy =                       -834.4061095656304587
  @DF-RKS Final Energy:  -834.40610931737672
    Total Energy =                       -834.4061093173766039
  Basis Set: AUG-CC-PV(Q+D)Z
    Blend: AUG-CC-PV(Q+D)Z
  Basis Set: (AUG-CC-PV(Q+D)Z AUX)
    Blend: AUG-CC-PVQZ-JKFIT
  @DF-RKS Final Energy:  -834.40610935508141
    Total Energy =                       -834.4061093550814121
  Basis Set: AUG-CC-PV(Q+D)Z
    Blend: AUG-CC-PV(Q+D)Z
  Basis Set: (AUG-CC-PV(Q+D)Z AUX)
    Blend: AUG-CC-PVQZ-JKFIT
  @DF-RKS Final Energy:  -834.40610836723044
    Total Energy =                       -834.4061083672304449
  Multiplicity = 1
  Basis Set: AUG-CC-PV(Q+D)Z
    Blend: AUG-CC-PV(Q+D)Z
  Basis Set: (AUG-CC-PV(Q+D)Z AUX)
    Blend: AUG-CC-PVQZ-JKFIT
  @DF-RKS Final Energy:  -834.40610947939240
    Total Energy =                       -834.4061094793923985
    Molecular point group: c2v

    Geometry (in Angstrom), charge = 0, multiplicity = 1:

       Center              X                  Y                   Z               Mass
    ------------   -----------------  -----------------  -----------------  -----------------
         C           -0.000700864006     0.000000000000     0.000000000000    12.000000000000
         S            0.000131526794     0.000000000000     1.546531057281    31.972071174400
         S            0.000131526794     0.000000000000    -1.546531057281    31.972071174400

  Charge       = 0
  Multiplicity = 1
  Basis Set: AUG-CC-PV(Q+D)Z
    Blend: AUG-CC-PV(Q+D)Z
  Basis Set: (AUG-CC-PV(Q+D)Z AUX)
    Blend: AUG-CC-PVQZ-JKFIT

    Orbital Energies [Eh]
    ---------------------

    Doubly Occupied:

       1A1   -88.920599     1B2   -88.920596     2A1   -10.408690
       2B2    -8.078078     3A1    -8.078057     3B2    -6.033596
       4A1    -6.033596     1A2    -6.029687     4B2    -6.029687
       1B1    -6.029686     5A1    -6.029686     6A1    -0.998274
       5B2    -0.900385     7A1    -0.621831     6B2    -0.538143
       8A1    -0.506174     2B1    -0.506174     2A2    -0.365344
       7B2    -0.365344

  @DF-RKS Final Energy:  -834.40610946929166

   => Energetics <=

    Nuclear Repulsion Energy =            109.4945309378145737
    One-Electron Energy =               -1368.0811103746759727
    Two-Electron Energy =                 466.5242349304310210
    DFT Exchange-Correlation Energy =     -42.5008178870393039
    Empirical Dispersion Energy =           0.0000000000000000
    VV10 Nonlocal Energy =                  0.1570529241780318
    Total Energy =                       -834.4061094692916640

  Dipole Moment: [D]
     X:     0.0007      Y:     0.0000      Z:     0.0000     Total:     0.0007

  Vibration                       6                   7                   8
  Freq [cm^-1]                 426.9714            451.2839            696.3816
  Irrep                          B2u                 B3u                  Ag
  Reduced mass [u]             13.3142             13.3142             31.9721
  Force const [mDyne/A]         1.4301              1.5976              9.1351

  Vibration                       9
  Freq [cm^-1]                1591.6595
  Irrep                          B1u
  Reduced mass [u]             13.3142
  Force const [mDyne/A]        19.8731

  ==> Thermochemistry Components <==

  Entropy, S
    Electronic S            0.000 [cal/(mol K)]        0.000 [J/(mol K)]       0.00000000 [mEh/K] (multiplicity = 1)
    Translational S        38.898 [cal/(mol K)]      162.748 [J/(mol K)]       0.06198752 [mEh/K] (mol. weight = 75.9441 [u], P = 101325.00 [Pa])
    Rotational S           15.591 [cal/(mol K)]       65.234 [J/(mol K)]       0.02484645 [mEh/K] (symmetry no. = 2)
    Vibrational S           1.979 [cal/(mol K)]        8.280 [J/(mol K)]       0.00315353 [mEh/K]
  Total S                  56.468 [cal/(mol K)]      236.262 [J/(mol K)]       0.08998750 [mEh/K]
  Correction S              0.000 [cal/(mol K)]        0.000 [J/(mol K)]       0.00000000 [mEh/K]

  Constant volume heat capacity, Cv
    Electronic Cv           0.000 [cal/(mol K)]        0.000 [J/(mol K)]       0.00000000 [mEh/K]
    Translational Cv        2.981 [cal/(mol K)]       12.472 [J/(mol K)]       0.00475022 [mEh/K]
    Rotational Cv           1.987 [cal/(mol K)]        8.314 [J/(mol K)]       0.00316681 [mEh/K]
    Vibrational Cv          3.660 [cal/(mol K)]       15.313 [J/(mol K)]       0.00583245 [mEh/K]
  Total Cv                  8.628 [cal/(mol K)]       36.099 [J/(mol K)]       0.01374948 [mEh/K]
  Correction Cv             0.000 [cal/(mol K)]        0.000 [J/(mol K)]       0.00000000 [mEh/K]

  Constant pressure heat capacity, Cp
    Electronic Cp           0.000 [cal/(mol K)]        0.000 [J/(mol K)]       0.00000000 [mEh/K]
    Translational Cp        4.968 [cal/(mol K)]       20.786 [J/(mol K)]       0.00791703 [mEh/K]
    Rotational Cp           1.987 [cal/(mol K)]        8.314 [J/(mol K)]       0.00316681 [mEh/K]
    Vibrational Cp          3.660 [cal/(mol K)]       15.313 [J/(mol K)]       0.00583245 [mEh/K]
  Total Cp                 10.615 [cal/(mol K)]       44.414 [J/(mol K)]       0.01691629 [mEh/K]
  Correction Cp             0.000 [cal/(mol K)]        0.000 [J/(mol K)]       0.00000000 [mEh/K]

  ==> Thermochemistry Energy Analysis <==

  Raw electronic energy, E0
  Total E0, Electronic energy at well bottom at 0 [K]                 -834.40610957 [Eh]

  Zero-point energy, ZPE_vib = Sum_i nu_i / 2
    Electronic ZPE          0.000 [kcal/mol]        0.000 [kJ/mol]       0.00000000 [Eh]
    Translational ZPE       0.000 [kcal/mol]        0.000 [kJ/mol]       0.00000000 [Eh]
    Rotational ZPE          0.000 [kcal/mol]        0.000 [kJ/mol]       0.00000000 [Eh]
    Vibrational ZPE         4.526 [kcal/mol]       18.939 [kJ/mol]       0.00721335 [Eh]        1583.148 [cm^-1]
  Correction ZPE            4.526 [kcal/mol]       18.939 [kJ/mol]       0.00721335 [Eh]        1583.148 [cm^-1]
  Total ZPE, Electronic energy at 0 [K]                               -834.39889621 [Eh]

  Thermal Energy, E (includes ZPE)
    Electronic E            0.000 [kcal/mol]        0.000 [kJ/mol]       0.00000000 [Eh]
    Translational E         0.889 [kcal/mol]        3.718 [kJ/mol]       0.00141628 [Eh]
    Rotational E            0.592 [kcal/mol]        2.479 [kJ/mol]       0.00094418 [Eh]
    Vibrational E           4.943 [kcal/mol]       20.683 [kJ/mol]       0.00787758 [Eh]
  Correction E              6.424 [kcal/mol]       26.880 [kJ/mol]       0.01023804 [Eh]
  Total E, Electronic energy at  298.15 [K]                           -834.39587153 [Eh]

  Enthalpy, H_trans = E_trans + k_B * T
    Electronic H            0.000 [kcal/mol]        0.000 [kJ/mol]       0.00000000 [Eh]
    Translational H         1.481 [kcal/mol]        6.197 [kJ/mol]       0.00236046 [Eh]
    Rotational H            0.592 [kcal/mol]        2.479 [kJ/mol]       0.00094418 [Eh]
    Vibrational H           4.943 [kcal/mol]       20.683 [kJ/mol]       0.00787758 [Eh]
  Correction H              7.017 [kcal/mol]       29.359 [kJ/mol]       0.01118222 [Eh]
  Total H, Enthalpy at  298.15 [K]                                    -834.39492734 [Eh]

  Gibbs free energy, G = H - T * S
    Electronic G            0.000 [kcal/mol]        0.000 [kJ/mol]       0.00000000 [Eh]
    Translational G       -10.116 [kcal/mol]      -42.326 [kJ/mol]      -0.01612112 [Eh]
    Rotational G           -4.056 [kcal/mol]      -16.971 [kJ/mol]      -0.00646378 [Eh]
    Vibrational G           4.353 [kcal/mol]       18.214 [kJ/mol]       0.00693735 [Eh]
  Correction G             -9.819 [kcal/mol]      -41.083 [kJ/mol]      -0.01564755 [Eh]
  Total G, Free enthalpy at  298.15 [K]                               -834.42175712 [Eh]

*** Psi4 exiting successfully. Buy a developer a beer!
