                               Psi4 1.3.2 release

  ==> Input File <==

--------------------------------------------------------------------------
memory 144 GB

molecule {
0 1
C 0.0000000000 0.0000000000 0.0000000000
S 0.0000000000 0.0000000000 1.5415329200
}

set dynamic_level 1
set basis aug-cc-pV(Q+d)Z

optimize("wB97X-V")
frequencies("wB97X-V")
--------------------------------------------------------------------------

    Molecular point group: c2v
  Charge       = 0
  Multiplicity = 1
  Basis Set: AUG-CC-PV(Q+D)Z
    Blend: AUG-CC-PV(Q+D)Z
  Basis Set: (AUG-CC-PV(Q+D)Z AUX)
    Blend: AUG-CC-PVQZ-JKFIT
  @DF-RKS Final Energy:  -436.17342147636651
    Total Energy =                       -436.1734214763665136
    Molecular point group: c2v
  Basis Set: AUG-CC-PV(Q+D)Z
    Blend: AUG-CC-PV(Q+D)Z
  Basis Set: (AUG-CC-PV(Q+D)Z AUX)
    Blend: AUG-CC-PVQZ-JKFIT
  @DF-RKS Final Energy:  -436.17338449421408
    Total Energy =                       -436.1733844942140763
  Basis Set: AUG-CC-PV(Q+D)Z
    Blend: AUG-CC-PV(Q+D)Z
  Basis Set: (AUG-CC-PV(Q+D)Z AUX)
    Blend: AUG-CC-PVQZ-JKFIT
  @DF-RKS Final Energy:  -436.17345686671553
    Total Energy =                       -436.1734568667155258
  Basis Set: AUG-CC-PV(Q+D)Z
    Blend: AUG-CC-PV(Q+D)Z
  Basis Set: (AUG-CC-PV(Q+D)Z AUX)
    Blend: AUG-CC-PVQZ-JKFIT
  @DF-RKS Final Energy:  -436.17381449731857
    Total Energy =                       -436.1738144973186309
  @DF-RKS Final Energy:  -436.17381018758374
    Total Energy =                       -436.1738101875836833
  @DF-RKS Final Energy:  -436.17381705888243
    Total Energy =                       -436.1738170588824346
  @DF-RKS Final Energy:  -436.17381785245158
    Total Energy =                       -436.1738178524515774
  @DF-RKS Final Energy:  -436.17381714649395
    Total Energy =                       -436.1738171464938318
  @DF-RKS Final Energy:  -436.17381678868753
    Total Energy =                       -436.1738167886874749
  **** Optimization is complete! (in 3 steps) ****
    Final optimized geometry and variables:
  @DF-RKS Final Energy:  -436.17381785245118
    Total Energy =                       -436.1738178524511795
  @DF-RKS Final Energy:  -436.17381714649457
    Total Energy =                       -436.1738171464945708
  Basis Set: AUG-CC-PV(Q+D)Z
    Blend: AUG-CC-PV(Q+D)Z
  Basis Set: (AUG-CC-PV(Q+D)Z AUX)
    Blend: AUG-CC-PVQZ-JKFIT
  @DF-RKS Final Energy:  -436.17381678868702
    Total Energy =                       -436.1738167886870770
  Basis Set: AUG-CC-PV(Q+D)Z
    Blend: AUG-CC-PV(Q+D)Z
  Basis Set: (AUG-CC-PV(Q+D)Z AUX)
    Blend: AUG-CC-PVQZ-JKFIT
  @DF-RKS Final Energy:  -436.17381785245095
    Total Energy =                       -436.1738178524509522
  Multiplicity = 1
  Basis Set: AUG-CC-PV(Q+D)Z
    Blend: AUG-CC-PV(Q+D)Z
  Basis Set: (AUG-CC-PV(Q+D)Z AUX)
    Blend: AUG-CC-PVQZ-JKFIT
  @DF-RKS Final Energy:  -436.17381714649480
    Total Energy =                       -436.1738171464948550
    Molecular point group: c2v

    Geometry (in Angstrom), charge = 0, multiplicity = 1:

       Center              X                  Y                   Z               Mass
    ------------   -----------------  -----------------  -----------------  -----------------
         C            0.000000000000     0.000000000000    -1.106103478818    12.000000000000
         S            0.000000000000     0.000000000000     0.415151138424    31.972071174400

  Charge       = 0
  Multiplicity = 1
  Basis Set: AUG-CC-PV(Q+D)Z
    Blend: AUG-CC-PV(Q+D)Z
  Basis Set: (AUG-CC-PV(Q+D)Z AUX)
    Blend: AUG-CC-PVQZ-JKFIT

    Orbital Energies [Eh]
    ---------------------

    Doubly Occupied:

       1A1   -88.938311     2A1   -10.372720     3A1    -8.098684
       1B2    -6.051840     1B1    -6.051840     4A1    -6.050425
       5A1    -0.971024     6A1    -0.636939     2B2    -0.460220
       2B1    -0.460220     7A1    -0.420415

  @DF-RKS Final Energy:  -436.17381678868770

   => Energetics <=

    Nuclear Repulsion Energy =             33.3941548301821953
    One-Electron Energy =                -666.4274995227078762
    Two-Electron Energy =                 219.8262530339666796
    DFT Exchange-Correlation Energy =     -23.0587854389903484
    Empirical Dispersion Energy =           0.0000000000000000
    VV10 Nonlocal Energy =                  0.0920603088616989
    Total Energy =                       -436.1738167886877022

  Dipole Moment: [D]
     X:     0.0000      Y:     0.0000      Z:     1.9800     Total:     1.9800

  Vibration                       6
  Freq [cm^-1]                1367.6862
  Irrep                           A1
  Reduced mass [u]             14.4661
  Force const [mDyne/A]        15.9431

  ==> Thermochemistry Components <==

  Entropy, S
    Electronic S            0.000 [cal/(mol K)]        0.000 [J/(mol K)]       0.00000000 [mEh/K] (multiplicity = 1)
    Translational S        37.269 [cal/(mol K)]      155.933 [J/(mol K)]       0.05939180 [mEh/K] (mol. weight = 43.9721 [u], P = 101325.00 [Pa])
    Rotational S           12.948 [cal/(mol K)]       54.173 [J/(mol K)]       0.02063323 [mEh/K] (symmetry no. = 1)
    Vibrational S           0.021 [cal/(mol K)]        0.086 [J/(mol K)]       0.00003278 [mEh/K]
  Total S                  50.237 [cal/(mol K)]      210.192 [J/(mol K)]       0.08005781 [mEh/K]
  Correction S              0.000 [cal/(mol K)]        0.000 [J/(mol K)]       0.00000000 [mEh/K]

  Constant volume heat capacity, Cv
    Electronic Cv           0.000 [cal/(mol K)]        0.000 [J/(mol K)]       0.00000000 [mEh/K]
    Translational Cv        2.981 [cal/(mol K)]       12.472 [J/(mol K)]       0.00475022 [mEh/K]
    Rotational Cv           1.987 [cal/(mol K)]        8.314 [J/(mol K)]       0.00316681 [mEh/K]
    Vibrational Cv          0.118 [cal/(mol K)]        0.494 [J/(mol K)]       0.00018817 [mEh/K]
  Total Cv                  5.086 [cal/(mol K)]       21.280 [J/(mol K)]       0.00810519 [mEh/K]
  Correction Cv             0.000 [cal/(mol K)]        0.000 [J/(mol K)]       0.00000000 [mEh/K]

  Constant pressure heat capacity, Cp
    Electronic Cp           0.000 [cal/(mol K)]        0.000 [J/(mol K)]       0.00000000 [mEh/K]
    Translational Cp        4.968 [cal/(mol K)]       20.786 [J/(mol K)]       0.00791703 [mEh/K]
    Rotational Cp           1.987 [cal/(mol K)]        8.314 [J/(mol K)]       0.00316681 [mEh/K]
    Vibrational Cp          0.118 [cal/(mol K)]        0.494 [J/(mol K)]       0.00018817 [mEh/K]
  Total Cp                  7.073 [cal/(mol K)]       29.595 [J/(mol K)]       0.01127200 [mEh/K]
  Correction Cp             0.000 [cal/(mol K)]        0.000 [J/(mol K)]       0.00000000 [mEh/K]

  ==> Thermochemistry Energy Analysis <==

  Raw electronic energy, E0
  Total E0, Electronic energy at well bottom at 0 [K]                 -436.17381785 [Eh]

  Zero-point energy, ZPE_vib = Sum_i nu_i / 2
    Electronic ZPE          0.000 [kcal/mol]        0.000 [kJ/mol]       0.00000000 [Eh]
    Translational ZPE       0.000 [kcal/mol]        0.000 [kJ/mol]       0.00000000 [Eh]
    Rotational ZPE          0.000 [kcal/mol]        0.000 [kJ/mol]       0.00000000 [Eh]
    Vibrational ZPE         1.955 [kcal/mol]        8.181 [kJ/mol]       0.00311582 [Eh]         683.843 [cm^-1]
  Correction ZPE            1.955 [kcal/mol]        8.181 [kJ/mol]       0.00311582 [Eh]         683.843 [cm^-1]
  Total ZPE, Electronic energy at 0 [K]                               -436.17070203 [Eh]

  Thermal Energy, E (includes ZPE)
    Electronic E            0.000 [kcal/mol]        0.000 [kJ/mol]       0.00000000 [Eh]
    Translational E         0.889 [kcal/mol]        3.718 [kJ/mol]       0.00141628 [Eh]
    Rotational E            0.592 [kcal/mol]        2.479 [kJ/mol]       0.00094418 [Eh]
    Vibrational E           1.961 [kcal/mol]        8.203 [kJ/mol]       0.00312431 [Eh]
  Correction E              3.442 [kcal/mol]       14.400 [kJ/mol]       0.00548477 [Eh]
  Total E, Electronic energy at  298.15 [K]                           -436.16833308 [Eh]

  Enthalpy, H_trans = E_trans + k_B * T
    Electronic H            0.000 [kcal/mol]        0.000 [kJ/mol]       0.00000000 [Eh]
    Translational H         1.481 [kcal/mol]        6.197 [kJ/mol]       0.00236046 [Eh]
    Rotational H            0.592 [kcal/mol]        2.479 [kJ/mol]       0.00094418 [Eh]
    Vibrational H           1.961 [kcal/mol]        8.203 [kJ/mol]       0.00312431 [Eh]
  Correction H              4.034 [kcal/mol]       16.879 [kJ/mol]       0.00642895 [Eh]
  Total H, Enthalpy at  298.15 [K]                                    -436.16738890 [Eh]

  Gibbs free energy, G = H - T * S
    Electronic G            0.000 [kcal/mol]        0.000 [kJ/mol]       0.00000000 [Eh]
    Translational G        -9.631 [kcal/mol]      -40.294 [kJ/mol]      -0.01534720 [Eh]
    Rotational G           -3.268 [kcal/mol]      -13.673 [kJ/mol]      -0.00520761 [Eh]
    Vibrational G           1.954 [kcal/mol]        8.177 [kJ/mol]       0.00311453 [Eh]
  Correction G            -10.944 [kcal/mol]      -45.789 [kJ/mol]      -0.01744028 [Eh]
  Total G, Free enthalpy at  298.15 [K]                               -436.19125814 [Eh]

*** Psi4 exiting successfully. Buy a developer a beer!
