                               Psi4 1.3.2 release

  ==> Input File <==

--------------------------------------------------------------------------
memory 144 GB

molecule {
0 1
F 0.0000000000 0.0000000000 0.0000000000
F 0.0000000000 0.0000000000 1.4129000000
}

set dynamic_level 1
set basis aug-cc-pV(Q+d)Z

optimize("wB97X-V")
frequencies("wB97X-V")
--------------------------------------------------------------------------

    Molecular point group: d2h
  Charge       = 0
  Multiplicity = 1
  Basis Set: AUG-CC-PV(Q+D)Z
    Blend: AUG-CC-PV(Q+D)Z
  Basis Set: (AUG-CC-PV(Q+D)Z AUX)
    Blend: AUG-CC-PVQZ-JKFIT
  @DF-RKS Final Energy:  -199.53441548312213
    Total Energy =                       -199.5344154831221317
    Molecular point group: d2h
  Basis Set: AUG-CC-PV(Q+D)Z
    Blend: AUG-CC-PV(Q+D)Z
  Basis Set: (AUG-CC-PV(Q+D)Z AUX)
    Blend: AUG-CC-PVQZ-JKFIT
  @DF-RKS Final Energy:  -199.53437310504685
    Total Energy =                       -199.5343731050468818
  Basis Set: AUG-CC-PV(Q+D)Z
    Blend: AUG-CC-PV(Q+D)Z
  Basis Set: (AUG-CC-PV(Q+D)Z AUX)
    Blend: AUG-CC-PVQZ-JKFIT
  @DF-RKS Final Energy:  -199.53445692172230
    Total Energy =                       -199.5344569217222954
  Basis Set: AUG-CC-PV(Q+D)Z
    Blend: AUG-CC-PV(Q+D)Z
  Basis Set: (AUG-CC-PV(Q+D)Z AUX)
    Blend: AUG-CC-PVQZ-JKFIT
  @DF-RKS Final Energy:  -199.53527600357404
    Total Energy =                       -199.5352760035740403
  @DF-RKS Final Energy:  -199.53527130955854
    Total Energy =                       -199.5352713095585386
  @DF-RKS Final Energy:  -199.53527956173875
    Total Energy =                       -199.5352795617387756
  @DF-RKS Final Energy:  -199.53528335923545
    Total Energy =                       -199.5352833592354216
  @DF-RKS Final Energy:  -199.53528322573331
    Total Energy =                       -199.5352832257333091
  @DF-RKS Final Energy:  -199.53528233032154
    Total Energy =                       -199.5352823303215359
  **** Optimization is complete! (in 3 steps) ****
    Final optimized geometry and variables:
  @DF-RKS Final Energy:  -199.53528335923554
    Total Energy =                       -199.5352833592355353
  @DF-RKS Final Energy:  -199.53528322573328
    Total Energy =                       -199.5352832257332523
  Basis Set: AUG-CC-PV(Q+D)Z
    Blend: AUG-CC-PV(Q+D)Z
  Basis Set: (AUG-CC-PV(Q+D)Z AUX)
    Blend: AUG-CC-PVQZ-JKFIT
  @DF-RKS Final Energy:  -199.53528233032145
    Total Energy =                       -199.5352823303214507
  Basis Set: AUG-CC-PV(Q+D)Z
    Blend: AUG-CC-PV(Q+D)Z
  Basis Set: (AUG-CC-PV(Q+D)Z AUX)
    Blend: AUG-CC-PVQZ-JKFIT
  @DF-RKS Final Energy:  -199.53528335923551
    Total Energy =                       -199.5352833592355069
  Multiplicity = 1
  Basis Set: AUG-CC-PV(Q+D)Z
    Blend: AUG-CC-PV(Q+D)Z
  Basis Set: (AUG-CC-PV(Q+D)Z AUX)
    Blend: AUG-CC-PVQZ-JKFIT
  @DF-RKS Final Energy:  -199.53528322573351
    Total Energy =                       -199.5352832257334796
    Molecular point group: d2h

    Geometry (in Angstrom), charge = 0, multiplicity = 1:

       Center              X                  Y                   Z               Mass
    ------------   -----------------  -----------------  -----------------  -----------------
         F            0.000000000000     0.000000000000    -0.688671959084    18.998403162730
         F            0.000000000000     0.000000000000     0.688671959084    18.998403162730

  Charge       = 0
  Multiplicity = 1
  Basis Set: AUG-CC-PV(Q+D)Z
    Blend: AUG-CC-PV(Q+D)Z
  Basis Set: (AUG-CC-PV(Q+D)Z AUX)
    Blend: AUG-CC-PVQZ-JKFIT

    Orbital Energies [Eh]
    ---------------------

    Doubly Occupied:

       1Ag   -24.869768     1B1u  -24.869761     2Ag    -1.499785
       2B1u   -1.232243     3Ag    -0.721488     1B3u   -0.669119
       1B2u   -0.669119     1B2g   -0.524224     1B3g   -0.524224

  @DF-RKS Final Energy:  -199.53528233032151

   => Energetics <=

    Nuclear Repulsion Energy =             31.1202986406461157
    One-Electron Energy =                -340.0086387090674407
    Two-Electron Energy =                 124.3007622742859297
    DFT Exchange-Correlation Energy =     -15.0247285026293369
    Empirical Dispersion Energy =           0.0000000000000000
    VV10 Nonlocal Energy =                  0.0770239664432062
    Total Energy =                       -199.5352823303215075

  Dipole Moment: [D]
     X:     0.0000      Y:     0.0000      Z:    -0.0000     Total:     0.0000

  Vibration                       6
  Freq [cm^-1]                1108.4473
  Irrep                           Ag
  Reduced mass [u]             18.9984
  Force const [mDyne/A]        13.7530

  ==> Thermochemistry Components <==

  Entropy, S
    Electronic S            0.000 [cal/(mol K)]        0.000 [J/(mol K)]       0.00000000 [mEh/K] (multiplicity = 1)
    Translational S        36.834 [cal/(mol K)]      154.112 [J/(mol K)]       0.05869802 [mEh/K] (mol. weight = 37.9968 [u], P = 101325.00 [Pa])
    Rotational S           11.344 [cal/(mol K)]       47.464 [J/(mol K)]       0.01807812 [mEh/K] (symmetry no. = 2)
    Vibrational S           0.060 [cal/(mol K)]        0.252 [J/(mol K)]       0.00009598 [mEh/K]
  Total S                  48.238 [cal/(mol K)]      201.828 [J/(mol K)]       0.07687212 [mEh/K]
  Correction S              0.000 [cal/(mol K)]        0.000 [J/(mol K)]       0.00000000 [mEh/K]

  Constant volume heat capacity, Cv
    Electronic Cv           0.000 [cal/(mol K)]        0.000 [J/(mol K)]       0.00000000 [mEh/K]
    Translational Cv        2.981 [cal/(mol K)]       12.472 [J/(mol K)]       0.00475022 [mEh/K]
    Rotational Cv           1.987 [cal/(mol K)]        8.314 [J/(mol K)]       0.00316681 [mEh/K]
    Vibrational Cv          0.273 [cal/(mol K)]        1.141 [J/(mol K)]       0.00043477 [mEh/K]
  Total Cv                  5.241 [cal/(mol K)]       21.928 [J/(mol K)]       0.00835180 [mEh/K]
  Correction Cv             0.000 [cal/(mol K)]        0.000 [J/(mol K)]       0.00000000 [mEh/K]

  Constant pressure heat capacity, Cp
    Electronic Cp           0.000 [cal/(mol K)]        0.000 [J/(mol K)]       0.00000000 [mEh/K]
    Translational Cp        4.968 [cal/(mol K)]       20.786 [J/(mol K)]       0.00791703 [mEh/K]
    Rotational Cp           1.987 [cal/(mol K)]        8.314 [J/(mol K)]       0.00316681 [mEh/K]
    Vibrational Cp          0.273 [cal/(mol K)]        1.141 [J/(mol K)]       0.00043477 [mEh/K]
  Total Cp                  7.228 [cal/(mol K)]       30.242 [J/(mol K)]       0.01151861 [mEh/K]
  Correction Cp             0.000 [cal/(mol K)]        0.000 [J/(mol K)]       0.00000000 [mEh/K]

  ==> Thermochemistry Energy Analysis <==

  Raw electronic energy, E0
  Total E0, Electronic energy at well bottom at 0 [K]                 -199.53528336 [Eh]

  Zero-point energy, ZPE_vib = Sum_i nu_i / 2
    Electronic ZPE          0.000 [kcal/mol]        0.000 [kJ/mol]       0.00000000 [Eh]
    Translational ZPE       0.000 [kcal/mol]        0.000 [kJ/mol]       0.00000000 [Eh]
    Rotational ZPE          0.000 [kcal/mol]        0.000 [kJ/mol]       0.00000000 [Eh]
    Vibrational ZPE         1.585 [kcal/mol]        6.630 [kJ/mol]       0.00252523 [Eh]         554.224 [cm^-1]
  Correction ZPE            1.585 [kcal/mol]        6.630 [kJ/mol]       0.00252523 [Eh]         554.224 [cm^-1]
  Total ZPE, Electronic energy at 0 [K]                               -199.53275813 [Eh]

  Thermal Energy, E (includes ZPE)
    Electronic E            0.000 [kcal/mol]        0.000 [kJ/mol]       0.00000000 [Eh]
    Translational E         0.889 [kcal/mol]        3.718 [kJ/mol]       0.00141628 [Eh]
    Rotational E            0.592 [kcal/mol]        2.479 [kJ/mol]       0.00094418 [Eh]
    Vibrational E           1.600 [kcal/mol]        6.693 [kJ/mol]       0.00254935 [Eh]
  Correction E              3.081 [kcal/mol]       12.891 [kJ/mol]       0.00490981 [Eh]
  Total E, Electronic energy at  298.15 [K]                           -199.53037355 [Eh]

  Enthalpy, H_trans = E_trans + k_B * T
    Electronic H            0.000 [kcal/mol]        0.000 [kJ/mol]       0.00000000 [Eh]
    Translational H         1.481 [kcal/mol]        6.197 [kJ/mol]       0.00236046 [Eh]
    Rotational H            0.592 [kcal/mol]        2.479 [kJ/mol]       0.00094418 [Eh]
    Vibrational H           1.600 [kcal/mol]        6.693 [kJ/mol]       0.00254935 [Eh]
  Correction H              3.673 [kcal/mol]       15.370 [kJ/mol]       0.00585399 [Eh]
  Total H, Enthalpy at  298.15 [K]                                    -199.52942937 [Eh]

  Gibbs free energy, G = H - T * S
    Electronic G            0.000 [kcal/mol]        0.000 [kJ/mol]       0.00000000 [Eh]
    Translational G        -9.501 [kcal/mol]      -39.751 [kJ/mol]      -0.01514035 [Eh]
    Rotational G           -2.790 [kcal/mol]      -11.672 [kJ/mol]      -0.00444581 [Eh]
    Vibrational G           1.582 [kcal/mol]        6.618 [kJ/mol]       0.00252073 [Eh]
  Correction G            -10.709 [kcal/mol]      -44.805 [kJ/mol]      -0.01706543 [Eh]
  Total G, Free enthalpy at  298.15 [K]                               -199.55234879 [Eh]

*** Psi4 exiting successfully. Buy a developer a beer!
