                               Psi4 1.3.2 release

  ==> Input File <==

--------------------------------------------------------------------------
memory 144 GB

molecule {
0 1
O 0.0000000000 0.0000000000 0.0000000000
C 0.0000000000 0.0000000000 1.2066000000
H 0.9369544103 0.0000000000 1.7870836544
H -0.9369544103 0.0000000000 1.7870836544
}

set dynamic_level 1
set basis aug-cc-pV(Q+d)Z

optimize("wB97X-V")
frequencies("wB97X-V")
--------------------------------------------------------------------------

    Molecular point group: c2v
  Charge       = 0
  Multiplicity = 1
  Basis Set: AUG-CC-PV(Q+D)Z
    Blend: AUG-CC-PV(Q+D)Z
  Basis Set: (AUG-CC-PV(Q+D)Z AUX)
    Blend: AUG-CC-PVQZ-JKFIT
  @DF-RKS Final Energy:  -114.51583028113701
    Total Energy =                       -114.5158302811369992
    Molecular point group: c2v
  Basis Set: AUG-CC-PV(Q+D)Z
    Blend: AUG-CC-PV(Q+D)Z
  Basis Set: (AUG-CC-PV(Q+D)Z AUX)
    Blend: AUG-CC-PVQZ-JKFIT
  @DF-RKS Final Energy:  -114.51580647518433
    Total Energy =                       -114.5158064751843483
  Basis Set: AUG-CC-PV(Q+D)Z
    Blend: AUG-CC-PV(Q+D)Z
  Basis Set: (AUG-CC-PV(Q+D)Z AUX)
    Blend: AUG-CC-PVQZ-JKFIT
  @DF-RKS Final Energy:  -114.51585118330986
    Total Energy =                       -114.5158511833098629
  Basis Set: AUG-CC-PV(Q+D)Z
    Blend: AUG-CC-PV(Q+D)Z
  Basis Set: (AUG-CC-PV(Q+D)Z AUX)
    Blend: AUG-CC-PVQZ-JKFIT
  @DF-RKS Final Energy:  -114.51584077762935
    Total Energy =                       -114.5158407776293501
  @DF-RKS Final Energy:  -114.51581576796508
    Total Energy =                       -114.5158157679650657
  @DF-RKS Final Energy:  -114.51581244585526
    Total Energy =                       -114.5158124458552606
  @DF-RKS Final Energy:  -114.51584142054742
    Total Energy =                       -114.5158414205474173
  @DF-RKS Final Energy:  -114.51593251326359
    Total Energy =                       -114.5159325132636070
  @DF-RKS Final Energy:  -114.51592764473175
    Total Energy =                       -114.5159276447317467
  @DF-RKS Final Energy:  -114.51593436122772
    Total Energy =                       -114.5159343612277070
  @DF-RKS Final Energy:  -114.51593543464406
    Total Energy =                       -114.5159354346440495
  @DF-RKS Final Energy:  -114.51592561246767
    Total Energy =                       -114.5159256124676688
  @DF-RKS Final Energy:  -114.51592754729509
    Total Energy =                       -114.5159275472950782
  @DF-RKS Final Energy:  -114.51593090055371
    Total Energy =                       -114.5159309005537125
  @DF-RKS Final Energy:  -114.51593696939823
    Total Energy =                       -114.5159369693982256
  @DF-RKS Final Energy:  -114.51593544310968
    Total Energy =                       -114.5159354431096830
  @DF-RKS Final Energy:  -114.51593545759543
    Total Energy =                       -114.5159354575954183
  @DF-RKS Final Energy:  -114.51593585667554
    Total Energy =                       -114.5159358566755401
  @DF-RKS Final Energy:  -114.51593410716603
    Total Energy =                       -114.5159341071660322
  @DF-RKS Final Energy:  -114.51593393341980
    Total Energy =                       -114.5159339334198023
  **** Optimization is complete! (in 3 steps) ****
    Final optimized geometry and variables:
  @DF-RKS Final Energy:  -114.51593393341972
    Total Energy =                       -114.5159339334197171
  @DF-RKS Final Energy:  -114.51593346141878
    Total Energy =                       -114.5159334614187827
  @DF-RKS Final Energy:  -114.51593696939825
    Total Energy =                       -114.5159369693982541
  @DF-RKS Final Energy:  -114.51593544311079
    Total Energy =                       -114.5159354431107914
  @DF-RKS Final Energy:  -114.51593545759668
    Total Energy =                       -114.5159354575966830
  @DF-RKS Final Energy:  -114.51593585667565
    Total Energy =                       -114.5159358566756680
  @DF-RKS Final Energy:  -114.51593410716610
    Total Energy =                       -114.5159341071661032
  @DF-RKS Final Energy:  -114.51593393342003
    Total Energy =                       -114.5159339334200297
  @DF-RKS Final Energy:  -114.51593346141924
    Total Energy =                       -114.5159334614192375
  @DF-RKS Final Energy:  -114.51593291352934
    Total Energy =                       -114.5159329135293405
  @DF-RKS Final Energy:  -114.51593464055883
    Total Energy =                       -114.5159346405588252
  @DF-RKS Final Energy:  -114.51593217133689
    Total Energy =                       -114.5159321713368996
  @DF-RKS Final Energy:  -114.51593262578314
    Total Energy =                       -114.5159326257831367
  @DF-RKS Final Energy:  -114.51593313957787
    Total Energy =                       -114.5159331395778679
  @DF-RKS Final Energy:  -114.51593537446392
    Total Energy =                       -114.5159353744639219
  @DF-RKS Final Energy:  -114.51593620691928
    Total Energy =                       -114.5159362069192781
  Basis Set: AUG-CC-PV(Q+D)Z
    Blend: AUG-CC-PV(Q+D)Z
  Basis Set: (AUG-CC-PV(Q+D)Z AUX)
    Blend: AUG-CC-PVQZ-JKFIT
  @DF-RKS Final Energy:  -114.51593273175121
    Total Energy =                       -114.5159327317512066
  Basis Set: AUG-CC-PV(Q+D)Z
    Blend: AUG-CC-PV(Q+D)Z
  Basis Set: (AUG-CC-PV(Q+D)Z AUX)
    Blend: AUG-CC-PVQZ-JKFIT
  @DF-RKS Final Energy:  -114.51593200811789
    Total Energy =                       -114.5159320081179004
  Multiplicity = 1
  Basis Set: AUG-CC-PV(Q+D)Z
    Blend: AUG-CC-PV(Q+D)Z
  Basis Set: (AUG-CC-PV(Q+D)Z AUX)
    Blend: AUG-CC-PVQZ-JKFIT
  @DF-RKS Final Energy:  -114.51593200698240
    Total Energy =                       -114.5159320069823963
    Molecular point group: cs

    Geometry (in Angstrom), charge = 0, multiplicity = 1:

       Center              X                  Y                   Z               Mass
    ------------   -----------------  -----------------  -----------------  -----------------
         O            0.000000000000    -0.000096404898    -0.599075489788    15.994914619570
         C            0.000000000000     0.000393012791     0.599909936828    12.000000000000
         H            0.940842103132    -0.001574760146     1.182368958741     1.007825032230
         H           -0.940842103132    -0.001574760146     1.182368958741     1.007825032230

  Charge       = 0
  Multiplicity = 1
  Basis Set: AUG-CC-PV(Q+D)Z
    Blend: AUG-CC-PV(Q+D)Z
  Basis Set: (AUG-CC-PV(Q+D)Z AUX)
    Blend: AUG-CC-PVQZ-JKFIT

    Orbital Energies [Eh]
    ---------------------

    Doubly Occupied:

       1Ap   -19.231601     2Ap   -10.371021     3Ap    -1.198291
       4Ap    -0.762362     1App   -0.618104     5Ap    -0.569483
       6Ap    -0.516317     2App   -0.380223

  @DF-RKS Final Energy:  -114.51593627852679

   => Energetics <=

    Nuclear Repulsion Energy =             31.4075871422580093
    One-Electron Energy =                -217.6888099629063902
    Two-Electron Energy =                  81.9864707713666121
    DFT Exchange-Correlation Energy =     -10.2876957121638419
    Empirical Dispersion Energy =           0.0000000000000000
    VV10 Nonlocal Energy =                  0.0665114829188166
    Total Energy =                       -114.5159362785268087

  Dipole Moment: [D]
     X:     0.0000      Y:    -0.0010      Z:     2.4478     Total:     2.4478

  Vibration                       7                   8                   9
  Freq [cm^-1]                1208.5035           1269.5014           1533.9547
  Irrep                           B2                  B1                  A1
  Reduced mass [u]              1.3664              1.3437              1.0951
  Force const [mDyne/A]         1.1758              1.2759              1.5181

  Vibration                       10                  11                  12
  Freq [cm^-1]                1844.4657           2928.2190           2993.0713
  Irrep                           A1                  A1                  B1
  Reduced mass [u]              7.9102              1.0445              1.1206
  Force const [mDyne/A]        15.8555              5.2766              5.9149

  ==> Thermochemistry Components <==

  Entropy, S
    Electronic S            0.000 [cal/(mol K)]        0.000 [J/(mol K)]       0.00000000 [mEh/K] (multiplicity = 1)
    Translational S        36.130 [cal/(mol K)]      151.169 [J/(mol K)]       0.05757719 [mEh/K] (mol. weight = 30.0106 [u], P = 101325.00 [Pa])
    Rotational S           16.002 [cal/(mol K)]       66.952 [J/(mol K)]       0.02550085 [mEh/K] (symmetry no. = 2)
    Vibrational S           0.084 [cal/(mol K)]        0.351 [J/(mol K)]       0.00013360 [mEh/K]
  Total S                  52.216 [cal/(mol K)]      218.472 [J/(mol K)]       0.08321163 [mEh/K]
  Correction S              0.000 [cal/(mol K)]        0.000 [J/(mol K)]       0.00000000 [mEh/K]

  Constant volume heat capacity, Cv
    Electronic Cv           0.000 [cal/(mol K)]        0.000 [J/(mol K)]       0.00000000 [mEh/K]
    Translational Cv        2.981 [cal/(mol K)]       12.472 [J/(mol K)]       0.00475022 [mEh/K]
    Rotational Cv           2.981 [cal/(mol K)]       12.472 [J/(mol K)]       0.00475022 [mEh/K]
    Vibrational Cv          0.451 [cal/(mol K)]        1.889 [J/(mol K)]       0.00071949 [mEh/K]
  Total Cv                  6.413 [cal/(mol K)]       26.832 [J/(mol K)]       0.01021992 [mEh/K]
  Correction Cv             0.000 [cal/(mol K)]        0.000 [J/(mol K)]       0.00000000 [mEh/K]

  Constant pressure heat capacity, Cp
    Electronic Cp           0.000 [cal/(mol K)]        0.000 [J/(mol K)]       0.00000000 [mEh/K]
    Translational Cp        4.968 [cal/(mol K)]       20.786 [J/(mol K)]       0.00791703 [mEh/K]
    Rotational Cp           2.981 [cal/(mol K)]       12.472 [J/(mol K)]       0.00475022 [mEh/K]
    Vibrational Cp          0.451 [cal/(mol K)]        1.889 [J/(mol K)]       0.00071949 [mEh/K]
  Total Cp                  8.400 [cal/(mol K)]       35.147 [J/(mol K)]       0.01338673 [mEh/K]
  Correction Cp             0.000 [cal/(mol K)]        0.000 [J/(mol K)]       0.00000000 [mEh/K]

  ==> Thermochemistry Energy Analysis <==

  Raw electronic energy, E0
  Total E0, Electronic energy at well bottom at 0 [K]                 -114.51593697 [Eh]

  Zero-point energy, ZPE_vib = Sum_i nu_i / 2
    Electronic ZPE          0.000 [kcal/mol]        0.000 [kJ/mol]       0.00000000 [Eh]
    Translational ZPE       0.000 [kcal/mol]        0.000 [kJ/mol]       0.00000000 [Eh]
    Rotational ZPE          0.000 [kcal/mol]        0.000 [kJ/mol]       0.00000000 [Eh]
    Vibrational ZPE        16.837 [kcal/mol]       70.446 [kJ/mol]       0.02683161 [Eh]        5888.858 [cm^-1]
  Correction ZPE           16.837 [kcal/mol]       70.446 [kJ/mol]       0.02683161 [Eh]        5888.858 [cm^-1]
  Total ZPE, Electronic energy at 0 [K]                               -114.48910536 [Eh]

  Thermal Energy, E (includes ZPE)
    Electronic E            0.000 [kcal/mol]        0.000 [kJ/mol]       0.00000000 [Eh]
    Translational E         0.889 [kcal/mol]        3.718 [kJ/mol]       0.00141628 [Eh]
    Rotational E            0.889 [kcal/mol]        3.718 [kJ/mol]       0.00141628 [Eh]
    Vibrational E          16.859 [kcal/mol]       70.536 [kJ/mol]       0.02686590 [Eh]
  Correction E             18.636 [kcal/mol]       77.973 [kJ/mol]       0.02969845 [Eh]
  Total E, Electronic energy at  298.15 [K]                           -114.48623852 [Eh]

  Enthalpy, H_trans = E_trans + k_B * T
    Electronic H            0.000 [kcal/mol]        0.000 [kJ/mol]       0.00000000 [Eh]
    Translational H         1.481 [kcal/mol]        6.197 [kJ/mol]       0.00236046 [Eh]
    Rotational H            0.889 [kcal/mol]        3.718 [kJ/mol]       0.00141628 [Eh]
    Vibrational H          16.859 [kcal/mol]       70.536 [kJ/mol]       0.02686590 [Eh]
  Correction H             19.229 [kcal/mol]       80.452 [kJ/mol]       0.03064264 [Eh]
  Total H, Enthalpy at  298.15 [K]                                    -114.48529433 [Eh]

  Gibbs free energy, G = H - T * S
    Electronic G            0.000 [kcal/mol]        0.000 [kJ/mol]       0.00000000 [Eh]
    Translational G        -9.291 [kcal/mol]      -38.874 [kJ/mol]      -0.01480618 [Eh]
    Rotational G           -3.882 [kcal/mol]      -16.243 [kJ/mol]      -0.00618680 [Eh]
    Vibrational G          16.834 [kcal/mol]       70.432 [kJ/mol]       0.02682607 [Eh]
  Correction G              3.660 [kcal/mol]       15.315 [kJ/mol]       0.00583309 [Eh]
  Total G, Free enthalpy at  298.15 [K]                               -114.51010388 [Eh]

*** Psi4 exiting successfully. Buy a developer a beer!
