                               Psi4 1.3.2 release

  ==> Input File <==

--------------------------------------------------------------------------
memory 144 GB

molecule {
0 1
S 0.0000000000 0.0000000000 0.0000000000
C 0.0000000000 0.0000000000 1.2066000000
H 0.9369544103 0.0000000000 1.7870836544
H -0.9369544103 0.0000000000 1.7870836544
}

set dynamic_level 1
set basis aug-cc-pV(Q+d)Z

optimize("wB97X-V")
frequencies("wB97X-V")
--------------------------------------------------------------------------

    Molecular point group: c2v
  Charge       = 0
  Multiplicity = 1
  Basis Set: AUG-CC-PV(Q+D)Z
    Blend: AUG-CC-PV(Q+D)Z
  Basis Set: (AUG-CC-PV(Q+D)Z AUX)
    Blend: AUG-CC-PVQZ-JKFIT
  @DF-RKS Final Energy:  -437.15196071517613
    Total Energy =                       -437.1519607151761875
    Molecular point group: c2v
  Basis Set: AUG-CC-PV(Q+D)Z
    Blend: AUG-CC-PV(Q+D)Z
  Basis Set: (AUG-CC-PV(Q+D)Z AUX)
    Blend: AUG-CC-PVQZ-JKFIT
  @DF-RKS Final Energy:  -437.15362082763141
    Total Energy =                       -437.1536208276314142
  Basis Set: AUG-CC-PV(Q+D)Z
    Blend: AUG-CC-PV(Q+D)Z
  Basis Set: (AUG-CC-PV(Q+D)Z AUX)
    Blend: AUG-CC-PVQZ-JKFIT
  @DF-RKS Final Energy:  -437.15029276034551
    Total Energy =                       -437.1502927603455078
  Basis Set: AUG-CC-PV(Q+D)Z
    Blend: AUG-CC-PV(Q+D)Z
  Basis Set: (AUG-CC-PV(Q+D)Z AUX)
    Blend: AUG-CC-PVQZ-JKFIT
  @DF-RKS Final Energy:  -437.15155809945139
    Total Energy =                       -437.1515580994514494
  @DF-RKS Final Energy:  -437.15235850102363
    Total Energy =                       -437.1523585010236275
  @DF-RKS Final Energy:  -437.15200327136273
    Total Energy =                       -437.1520032713627870
  @DF-RKS Final Energy:  -437.15191201581968
    Total Energy =                       -437.1519120158196756
  @DF-RKS Final Energy:  -437.33234273845977
    Total Energy =                       -437.3323427384597721
  @DF-RKS Final Energy:  -437.33309459834845
    Total Energy =                       -437.3330945983484526
  @DF-RKS Final Energy:  -437.33158657124932
    Total Energy =                       -437.3315865712493178
  @DF-RKS Final Energy:  -437.33211401221683
    Total Energy =                       -437.3321140122168345
  @DF-RKS Final Energy:  -437.33256699858174
    Total Energy =                       -437.3325669985817967
  @DF-RKS Final Energy:  -437.33238212078538
    Total Energy =                       -437.3323821207853825
  @DF-RKS Final Energy:  -437.33229717661021
    Total Energy =                       -437.3322971766102683
  @DF-RKS Final Energy:  -437.39744859113540
    Total Energy =                       -437.3974485911354009
  @DF-RKS Final Energy:  -437.39778384385522
    Total Energy =                       -437.3977838438552226
  @DF-RKS Final Energy:  -437.39711069999845
    Total Energy =                       -437.3971106999985068
  @DF-RKS Final Energy:  -437.39732871255518
    Total Energy =                       -437.3973287125552361
  @DF-RKS Final Energy:  -437.39756409826458
    Total Energy =                       -437.3975640982646382
  @DF-RKS Final Energy:  -437.39745551781095
    Total Energy =                       -437.3974555178109540
  **** Optimization is complete! (in 9 steps) ****
    Final optimized geometry and variables:
  @DF-RKS Final Energy:  -437.42458035664907
    Total Energy =                       -437.4245803566491304
  @DF-RKS Final Energy:  -437.42458033365386
    Total Energy =                       -437.4245803336538074
  @DF-RKS Final Energy:  -437.42458388986444
    Total Energy =                       -437.4245838898644365
  @DF-RKS Final Energy:  -437.42458329056865
    Total Energy =                       -437.4245832905686484
  @DF-RKS Final Energy:  -437.42458324041917
    Total Energy =                       -437.4245832404191106
  @DF-RKS Final Energy:  -437.42458187378253
    Total Energy =                       -437.4245818737824720
  @DF-RKS Final Energy:  -437.42458179413404
    Total Energy =                       -437.4245817941340420
  @DF-RKS Final Energy:  -437.42458035664930
    Total Energy =                       -437.4245803566492441
  @DF-RKS Final Energy:  -437.42458033365392
    Total Energy =                       -437.4245803336539780
  @DF-RKS Final Energy:  -437.42458132378960
    Total Energy =                       -437.4245813237896527
  @DF-RKS Final Energy:  -437.42458143513585
    Total Energy =                       -437.4245814351358490
  @DF-RKS Final Energy:  -437.42457966350725
    Total Energy =                       -437.4245796635071883
  @DF-RKS Final Energy:  -437.42457973035749
    Total Energy =                       -437.4245797303575500
  @DF-RKS Final Energy:  -437.42458136193255
    Total Energy =                       -437.4245813619326100
  @DF-RKS Final Energy:  -437.42458146195059
    Total Energy =                       -437.4245814619505381
  @DF-RKS Final Energy:  -437.42458340742360
    Total Energy =                       -437.4245834074235972
  Basis Set: AUG-CC-PV(Q+D)Z
    Blend: AUG-CC-PV(Q+D)Z
  Basis Set: (AUG-CC-PV(Q+D)Z AUX)
    Blend: AUG-CC-PVQZ-JKFIT
  @DF-RKS Final Energy:  -437.42457910447740
    Total Energy =                       -437.4245791044774023
  Basis Set: AUG-CC-PV(Q+D)Z
    Blend: AUG-CC-PV(Q+D)Z
  Basis Set: (AUG-CC-PV(Q+D)Z AUX)
    Blend: AUG-CC-PVQZ-JKFIT
  @DF-RKS Final Energy:  -437.42457864821279
    Total Energy =                       -437.4245786482127301
  Multiplicity = 1
  Basis Set: AUG-CC-PV(Q+D)Z
    Blend: AUG-CC-PV(Q+D)Z
  Basis Set: (AUG-CC-PV(Q+D)Z AUX)
    Blend: AUG-CC-PVQZ-JKFIT
  @DF-RKS Final Energy:  -437.42457865399319
    Total Energy =                       -437.4245786539930805
    Molecular point group: cs

    Geometry (in Angstrom), charge = 0, multiplicity = 1:

       Center              X                  Y                   Z               Mass
    ------------   -----------------  -----------------  -----------------  -----------------
         S            0.000000000000    -0.000037011603    -0.511959310862    31.972071174400
         C            0.000000000000     0.000371096677     1.084763057788    12.000000000000
         H            0.923355739436    -0.001622217359     1.662611427905     1.007825032230
         H           -0.923355739436    -0.001622217359     1.662611427905     1.007825032230

  Charge       = 0
  Multiplicity = 1
  Basis Set: AUG-CC-PV(Q+D)Z
    Blend: AUG-CC-PV(Q+D)Z
  Basis Set: (AUG-CC-PV(Q+D)Z AUX)
    Blend: AUG-CC-PVQZ-JKFIT

    Orbital Energies [Eh]
    ---------------------

    Doubly Occupied:

       1Ap   -88.891015     2Ap   -10.345062     3Ap    -8.047468
       4Ap    -6.004979     5Ap    -6.002046     1App   -5.994352
       6Ap    -0.936219     7Ap    -0.724639     2App   -0.581779
       8Ap    -0.504420     9Ap    -0.424733     3App   -0.334777

  @DF-RKS Final Energy:  -437.42458336237110

   => Energetics <=

    Nuclear Repulsion Energy =             45.0998223598938708
    One-Electron Energy =                -691.5350687757072592
    Two-Electron Energy =                 232.4206165342091310
    DFT Exchange-Correlation Energy =     -23.5092106170654986
    Empirical Dispersion Energy =           0.0000000000000000
    VV10 Nonlocal Energy =                  0.0992571362986173
    Total Energy =                       -437.4245833623711519

  Dipole Moment: [D]
     X:     0.0000      Y:    -0.0026      Z:     1.8029     Total:     1.8029

  Vibration                       7                   8                   9
  Freq [cm^-1]                1009.8322           1055.9850           1139.4693
  Irrep                           B1                  B2                  A1
  Reduced mass [u]              1.2085              1.2959              4.1609
  Force const [mDyne/A]         0.7261              0.8514              3.1831

  Vibration                       10                  11                  12
  Freq [cm^-1]                1510.9705           3094.8361           3180.6072
  Irrep                           A1                  A1                  B1
  Reduced mass [u]              1.2180              1.0518              1.1191
  Force const [mDyne/A]         1.6384              5.9353              6.6704

  ==> Thermochemistry Components <==

  Entropy, S
    Electronic S            0.000 [cal/(mol K)]        0.000 [J/(mol K)]       0.00000000 [mEh/K] (multiplicity = 1)
    Translational S        37.403 [cal/(mol K)]      156.492 [J/(mol K)]       0.05960470 [mEh/K] (mol. weight = 45.9877 [u], P = 101325.00 [Pa])
    Rotational S           17.444 [cal/(mol K)]       72.984 [J/(mol K)]       0.02779807 [mEh/K] (symmetry no. = 2)
    Vibrational S           0.229 [cal/(mol K)]        0.957 [J/(mol K)]       0.00036459 [mEh/K]
  Total S                  55.075 [cal/(mol K)]      230.433 [J/(mol K)]       0.08776736 [mEh/K]
  Correction S              0.000 [cal/(mol K)]        0.000 [J/(mol K)]       0.00000000 [mEh/K]

  Constant volume heat capacity, Cv
    Electronic Cv           0.000 [cal/(mol K)]        0.000 [J/(mol K)]       0.00000000 [mEh/K]
    Translational Cv        2.981 [cal/(mol K)]       12.472 [J/(mol K)]       0.00475022 [mEh/K]
    Rotational Cv           2.981 [cal/(mol K)]       12.472 [J/(mol K)]       0.00475022 [mEh/K]
    Vibrational Cv          1.007 [cal/(mol K)]        4.212 [J/(mol K)]       0.00160414 [mEh/K]
  Total Cv                  6.968 [cal/(mol K)]       29.155 [J/(mol K)]       0.01110457 [mEh/K]
  Correction Cv             0.000 [cal/(mol K)]        0.000 [J/(mol K)]       0.00000000 [mEh/K]

  Constant pressure heat capacity, Cp
    Electronic Cp           0.000 [cal/(mol K)]        0.000 [J/(mol K)]       0.00000000 [mEh/K]
    Translational Cp        4.968 [cal/(mol K)]       20.786 [J/(mol K)]       0.00791703 [mEh/K]
    Rotational Cp           2.981 [cal/(mol K)]       12.472 [J/(mol K)]       0.00475022 [mEh/K]
    Vibrational Cp          1.007 [cal/(mol K)]        4.212 [J/(mol K)]       0.00160414 [mEh/K]
  Total Cp                  8.955 [cal/(mol K)]       37.470 [J/(mol K)]       0.01427138 [mEh/K]
  Correction Cp             0.000 [cal/(mol K)]        0.000 [J/(mol K)]       0.00000000 [mEh/K]

  ==> Thermochemistry Energy Analysis <==

  Raw electronic energy, E0
  Total E0, Electronic energy at well bottom at 0 [K]                 -437.42458389 [Eh]

  Zero-point energy, ZPE_vib = Sum_i nu_i / 2
    Electronic ZPE          0.000 [kcal/mol]        0.000 [kJ/mol]       0.00000000 [Eh]
    Translational ZPE       0.000 [kcal/mol]        0.000 [kJ/mol]       0.00000000 [Eh]
    Rotational ZPE          0.000 [kcal/mol]        0.000 [kJ/mol]       0.00000000 [Eh]
    Vibrational ZPE        15.713 [kcal/mol]       65.745 [kJ/mol]       0.02504094 [Eh]        5495.850 [cm^-1]
  Correction ZPE           15.713 [kcal/mol]       65.745 [kJ/mol]       0.02504094 [Eh]        5495.850 [cm^-1]
  Total ZPE, Electronic energy at 0 [K]                               -437.39954295 [Eh]

  Thermal Energy, E (includes ZPE)
    Electronic E            0.000 [kcal/mol]        0.000 [kJ/mol]       0.00000000 [Eh]
    Translational E         0.889 [kcal/mol]        3.718 [kJ/mol]       0.00141628 [Eh]
    Rotational E            0.889 [kcal/mol]        3.718 [kJ/mol]       0.00141628 [Eh]
    Vibrational E          15.771 [kcal/mol]       65.984 [kJ/mol]       0.02513207 [Eh]
  Correction E             17.548 [kcal/mol]       73.421 [kJ/mol]       0.02796463 [Eh]
  Total E, Electronic energy at  298.15 [K]                           -437.39661926 [Eh]

  Enthalpy, H_trans = E_trans + k_B * T
    Electronic H            0.000 [kcal/mol]        0.000 [kJ/mol]       0.00000000 [Eh]
    Translational H         1.481 [kcal/mol]        6.197 [kJ/mol]       0.00236046 [Eh]
    Rotational H            0.889 [kcal/mol]        3.718 [kJ/mol]       0.00141628 [Eh]
    Vibrational H          15.771 [kcal/mol]       65.984 [kJ/mol]       0.02513207 [Eh]
  Correction H             18.141 [kcal/mol]       75.900 [kJ/mol]       0.02890881 [Eh]
  Total H, Enthalpy at  298.15 [K]                                    -437.39567508 [Eh]

  Gibbs free energy, G = H - T * S
    Electronic G            0.000 [kcal/mol]        0.000 [kJ/mol]       0.00000000 [Eh]
    Translational G        -9.670 [kcal/mol]      -40.461 [kJ/mol]      -0.01541068 [Eh]
    Rotational G           -4.312 [kcal/mol]      -18.042 [kJ/mol]      -0.00687172 [Eh]
    Vibrational G          15.702 [kcal/mol]       65.699 [kJ/mol]       0.02502337 [Eh]
  Correction G              1.720 [kcal/mol]        7.196 [kJ/mol]       0.00274097 [Eh]
  Total G, Free enthalpy at  298.15 [K]                               -437.42184292 [Eh]

*** Psi4 exiting successfully. Buy a developer a beer!
