                               Psi4 1.3.2 release

  ==> Input File <==

--------------------------------------------------------------------------
memory 144 GB

molecule {
0 1
O 0.0000000000 0.0000000000 0.0000000000
H 0.0000000000 0.0000000000 0.9579000000
H 0.9289588892 0.0000000000 -0.2336831018
}

set dynamic_level 1
set basis aug-cc-pV(Q+d)Z

optimize("wB97X-V")
frequencies("wB97X-V")
--------------------------------------------------------------------------

    Molecular point group: c2v
  Charge       = 0
  Multiplicity = 1
  Basis Set: AUG-CC-PV(Q+D)Z
    Blend: AUG-CC-PV(Q+D)Z
  Basis Set: (AUG-CC-PV(Q+D)Z AUX)
    Blend: AUG-CC-PVQZ-JKFIT
  @DF-RKS Final Energy:   -76.43952240709530
    Total Energy =                        -76.4395224070953105
    Molecular point group: c2v
  Basis Set: AUG-CC-PV(Q+D)Z
    Blend: AUG-CC-PV(Q+D)Z
  Basis Set: (AUG-CC-PV(Q+D)Z AUX)
    Blend: AUG-CC-PVQZ-JKFIT
  @DF-RKS Final Energy:   -76.43951975407845
    Total Energy =                        -76.4395197540784608
  Basis Set: AUG-CC-PV(Q+D)Z
    Blend: AUG-CC-PV(Q+D)Z
  Basis Set: (AUG-CC-PV(Q+D)Z AUX)
    Blend: AUG-CC-PVQZ-JKFIT
  @DF-RKS Final Energy:   -76.43951850180791
    Total Energy =                        -76.4395185018079246
  Basis Set: AUG-CC-PV(Q+D)Z
    Blend: AUG-CC-PV(Q+D)Z
  Basis Set: (AUG-CC-PV(Q+D)Z AUX)
    Blend: AUG-CC-PVQZ-JKFIT
  @DF-RKS Final Energy:   -76.43949938881815
    Total Energy =                        -76.4394993888181489
  @DF-RKS Final Energy:   -76.43953519801046
    Total Energy =                        -76.4395351980104607
  @DF-RKS Final Energy:   -76.43954922617600
    Total Energy =                        -76.4395492261759983
  @DF-RKS Final Energy:   -76.43954462819087
    Total Energy =                        -76.4395446281908590
  @DF-RKS Final Energy:   -76.43954740797338
    Total Energy =                        -76.4395474079733930
  @DF-RKS Final Energy:   -76.43954724494067
    Total Energy =                        -76.4395472449406554
  @DF-RKS Final Energy:   -76.43954105951047
    Total Energy =                        -76.4395410595104750
  @DF-RKS Final Energy:   -76.43954970741851
    Total Energy =                        -76.4395497074185215
  @DF-RKS Final Energy:   -76.43954631326878
    Total Energy =                        -76.4395463132687780
  @DF-RKS Final Energy:   -76.43954667110725
    Total Energy =                        -76.4395466711072658
  @DF-RKS Final Energy:   -76.43954477845877
    Total Energy =                        -76.4395447784587816
  @DF-RKS Final Energy:   -76.43954447240631
    Total Energy =                        -76.4395444724063253
  **** Optimization is complete! (in 3 steps) ****
    Final optimized geometry and variables:
  @DF-RKS Final Energy:   -76.43954970741888
    Total Energy =                        -76.4395497074189052
  @DF-RKS Final Energy:   -76.43954631326828
    Total Energy =                        -76.4395463132682806
  @DF-RKS Final Energy:   -76.43954667110681
    Total Energy =                        -76.4395466711067968
  @DF-RKS Final Energy:   -76.43954477845841
    Total Energy =                        -76.4395447784584121
  @DF-RKS Final Energy:   -76.43954447240557
    Total Energy =                        -76.4395444724055864
  @DF-RKS Final Energy:   -76.43954970741956
    Total Energy =                        -76.4395497074195447
  @DF-RKS Final Energy:   -76.43954631326930
    Total Energy =                        -76.4395463132693038
  @DF-RKS Final Energy:   -76.43954667110769
    Total Energy =                        -76.4395466711076921
  @DF-RKS Final Energy:   -76.43954477845924
    Total Energy =                        -76.4395447784592363
  Basis Set: AUG-CC-PV(Q+D)Z
    Blend: AUG-CC-PV(Q+D)Z
  Basis Set: (AUG-CC-PV(Q+D)Z AUX)
    Blend: AUG-CC-PVQZ-JKFIT
  @DF-RKS Final Energy:   -76.43954447240661
    Total Energy =                        -76.4395444724066238
  Basis Set: AUG-CC-PV(Q+D)Z
    Blend: AUG-CC-PV(Q+D)Z
  Basis Set: (AUG-CC-PV(Q+D)Z AUX)
    Blend: AUG-CC-PVQZ-JKFIT
  @DF-RKS Final Energy:   -76.43954688521762
    Total Energy =                        -76.4395468852176379
  Multiplicity = 1
  Basis Set: AUG-CC-PV(Q+D)Z
    Blend: AUG-CC-PV(Q+D)Z
  Basis Set: (AUG-CC-PV(Q+D)Z AUX)
    Blend: AUG-CC-PVQZ-JKFIT
  @DF-RKS Final Energy:   -76.43954685599627
    Total Energy =                        -76.4395468559962836
    Molecular point group: cs

    Geometry (in Angstrom), charge = 0, multiplicity = 1:

       Center              X                  Y                   Z               Mass
    ------------   -----------------  -----------------  -----------------  -----------------
         O            0.000000000000    -0.000179370957    -0.065350044766    15.994914619570
         H            0.000000000000     0.762733754762     0.519668046817     1.007825032230
         H            0.000000000000    -0.759887007508     0.517484586815     1.007825032230

  Charge       = 0
  Multiplicity = 1
  Basis Set: AUG-CC-PV(Q+D)Z
    Blend: AUG-CC-PV(Q+D)Z
  Basis Set: (AUG-CC-PV(Q+D)Z AUX)
    Blend: AUG-CC-PVQZ-JKFIT

    Orbital Energies [Eh]
    ---------------------

    Doubly Occupied:

       1Ap   -19.217444     2Ap    -1.145314     3Ap    -0.647907
       4Ap    -0.505735     1App   -0.430375

  @DF-RKS Final Energy:   -76.43954229964332

   => Energetics <=

    Nuclear Repulsion Energy =              9.1721631969398807
    One-Electron Energy =                -122.9825032946893089
    Two-Electron Energy =                  43.8614270014771037
    DFT Exchange-Correlation Energy =      -6.5332034759956183
    Empirical Dispersion Energy =           0.0000000000000000
    VV10 Nonlocal Energy =                  0.0425742726246242
    Total Energy =                        -76.4395422996433211

  Dipole Moment: [D]
     X:     0.0000      Y:     0.0033      Z:     1.8661     Total:     1.8661

  Vibration                       7                   8                   9
  Freq [cm^-1]                1634.1683           3856.1058           3957.2474
  Irrep                           A1                  A1                  B2
  Reduced mass [u]              1.0830              1.0449              1.0824
  Force const [mDyne/A]         1.7040              9.1541              9.9865

  ==> Thermochemistry Components <==

  Entropy, S
    Electronic S            0.000 [cal/(mol K)]        0.000 [J/(mol K)]       0.00000000 [mEh/K] (multiplicity = 1)
    Translational S        34.608 [cal/(mol K)]      144.801 [J/(mol K)]       0.05515177 [mEh/K] (mol. weight = 18.0106 [u], P = 101325.00 [Pa])
    Rotational S           10.456 [cal/(mol K)]       43.747 [J/(mol K)]       0.01666230 [mEh/K] (symmetry no. = 2)
    Vibrational S           0.007 [cal/(mol K)]        0.028 [J/(mol K)]       0.00001058 [mEh/K]
  Total S                  45.071 [cal/(mol K)]      188.576 [J/(mol K)]       0.07182465 [mEh/K]
  Correction S              0.000 [cal/(mol K)]        0.000 [J/(mol K)]       0.00000000 [mEh/K]

  Constant volume heat capacity, Cv
    Electronic Cv           0.000 [cal/(mol K)]        0.000 [J/(mol K)]       0.00000000 [mEh/K]
    Translational Cv        2.981 [cal/(mol K)]       12.472 [J/(mol K)]       0.00475022 [mEh/K]
    Rotational Cv           2.981 [cal/(mol K)]       12.472 [J/(mol K)]       0.00475022 [mEh/K]
    Vibrational Cv          0.047 [cal/(mol K)]        0.195 [J/(mol K)]       0.00007412 [mEh/K]
  Total Cv                  6.008 [cal/(mol K)]       25.138 [J/(mol K)]       0.00957455 [mEh/K]
  Correction Cv             0.000 [cal/(mol K)]        0.000 [J/(mol K)]       0.00000000 [mEh/K]

  Constant pressure heat capacity, Cp
    Electronic Cp           0.000 [cal/(mol K)]        0.000 [J/(mol K)]       0.00000000 [mEh/K]
    Translational Cp        4.968 [cal/(mol K)]       20.786 [J/(mol K)]       0.00791703 [mEh/K]
    Rotational Cp           2.981 [cal/(mol K)]       12.472 [J/(mol K)]       0.00475022 [mEh/K]
    Vibrational Cp          0.047 [cal/(mol K)]        0.195 [J/(mol K)]       0.00007412 [mEh/K]
  Total Cp                  7.995 [cal/(mol K)]       33.452 [J/(mol K)]       0.01274136 [mEh/K]
  Correction Cp             0.000 [cal/(mol K)]        0.000 [J/(mol K)]       0.00000000 [mEh/K]

  ==> Thermochemistry Energy Analysis <==

  Raw electronic energy, E0
  Total E0, Electronic energy at well bottom at 0 [K]                  -76.43954971 [Eh]

  Zero-point energy, ZPE_vib = Sum_i nu_i / 2
    Electronic ZPE          0.000 [kcal/mol]        0.000 [kJ/mol]       0.00000000 [Eh]
    Translational ZPE       0.000 [kcal/mol]        0.000 [kJ/mol]       0.00000000 [Eh]
    Rotational ZPE          0.000 [kcal/mol]        0.000 [kJ/mol]       0.00000000 [Eh]
    Vibrational ZPE        13.506 [kcal/mol]       56.509 [kJ/mol]       0.02152304 [Eh]        4723.761 [cm^-1]
  Correction ZPE           13.506 [kcal/mol]       56.509 [kJ/mol]       0.02152304 [Eh]        4723.761 [cm^-1]
  Total ZPE, Electronic energy at 0 [K]                                -76.41802667 [Eh]

  Thermal Energy, E (includes ZPE)
    Electronic E            0.000 [kcal/mol]        0.000 [kJ/mol]       0.00000000 [Eh]
    Translational E         0.889 [kcal/mol]        3.718 [kJ/mol]       0.00141628 [Eh]
    Rotational E            0.889 [kcal/mol]        3.718 [kJ/mol]       0.00141628 [Eh]
    Vibrational E          13.508 [kcal/mol]       56.516 [kJ/mol]       0.02152584 [Eh]
  Correction E             15.285 [kcal/mol]       63.953 [kJ/mol]       0.02435839 [Eh]
  Total E, Electronic energy at  298.15 [K]                            -76.41519132 [Eh]

  Enthalpy, H_trans = E_trans + k_B * T
    Electronic H            0.000 [kcal/mol]        0.000 [kJ/mol]       0.00000000 [Eh]
    Translational H         1.481 [kcal/mol]        6.197 [kJ/mol]       0.00236046 [Eh]
    Rotational H            0.889 [kcal/mol]        3.718 [kJ/mol]       0.00141628 [Eh]
    Vibrational H          13.508 [kcal/mol]       56.516 [kJ/mol]       0.02152584 [Eh]
  Correction H             15.878 [kcal/mol]       66.432 [kJ/mol]       0.02530258 [Eh]
  Total H, Enthalpy at  298.15 [K]                                     -76.41424713 [Eh]

  Gibbs free energy, G = H - T * S
    Electronic G            0.000 [kcal/mol]        0.000 [kJ/mol]       0.00000000 [Eh]
    Translational G        -8.837 [kcal/mol]      -36.975 [kJ/mol]      -0.01408304 [Eh]
    Rotational G           -2.229 [kcal/mol]       -9.325 [kJ/mol]      -0.00355159 [Eh]
    Vibrational G          13.506 [kcal/mol]       56.508 [kJ/mol]       0.02152268 [Eh]
  Correction G              2.440 [kcal/mol]       10.208 [kJ/mol]       0.00388806 [Eh]
  Total G, Free enthalpy at  298.15 [K]                                -76.43566165 [Eh]

*** Psi4 exiting successfully. Buy a developer a beer!
