                               Psi4 1.3.2 release

  ==> Input File <==

--------------------------------------------------------------------------
memory 144 GB

molecule {
0 1
S 0.0000000000 0.0000000000 0.0000000000
H 0.0000000000 0.0000000000 1.3377284100
H 1.3366219004 0.0000000000 -0.0543984776
}

set dynamic_level 1
set basis aug-cc-pV(Q+d)Z

optimize("wB97X-V")
frequencies("wB97X-V")
--------------------------------------------------------------------------

    Molecular point group: c2v
  Charge       = 0
  Multiplicity = 1
  Basis Set: AUG-CC-PV(Q+D)Z
    Blend: AUG-CC-PV(Q+D)Z
  Basis Set: (AUG-CC-PV(Q+D)Z AUX)
    Blend: AUG-CC-PVQZ-JKFIT
  @DF-RKS Final Energy:  -399.35316192643063
    Total Energy =                       -399.3531619264306300
    Molecular point group: c2v
  Basis Set: AUG-CC-PV(Q+D)Z
    Blend: AUG-CC-PV(Q+D)Z
  Basis Set: (AUG-CC-PV(Q+D)Z AUX)
    Blend: AUG-CC-PVQZ-JKFIT
  @DF-RKS Final Energy:  -399.35315685524682
    Total Energy =                       -399.3531568552468798
  Basis Set: AUG-CC-PV(Q+D)Z
    Blend: AUG-CC-PV(Q+D)Z
  Basis Set: (AUG-CC-PV(Q+D)Z AUX)
    Blend: AUG-CC-PVQZ-JKFIT
  @DF-RKS Final Energy:  -399.35316285787803
    Total Energy =                       -399.3531628578780328
  Basis Set: AUG-CC-PV(Q+D)Z
    Blend: AUG-CC-PV(Q+D)Z
  Basis Set: (AUG-CC-PV(Q+D)Z AUX)
    Blend: AUG-CC-PVQZ-JKFIT
  @DF-RKS Final Energy:  -399.35315833866082
    Total Energy =                       -399.3531583386608190
  @DF-RKS Final Energy:  -399.35316104570018
    Total Energy =                       -399.3531610457001761
  @DF-RKS Final Energy:  -399.35316539731821
    Total Energy =                       -399.3531653973182074
  @DF-RKS Final Energy:  -399.35316330060436
    Total Energy =                       -399.3531633006043648
  @DF-RKS Final Energy:  -399.35316334768368
    Total Energy =                       -399.3531633476837328
  @DF-RKS Final Energy:  -399.35316359298275
    Total Energy =                       -399.3531635929828099
  @DF-RKS Final Energy:  -399.35316271252685
    Total Energy =                       -399.3531627125267960
  **** Optimization is complete! (in 2 steps) ****
    Final optimized geometry and variables:
  @DF-RKS Final Energy:  -399.35316539731832
    Total Energy =                       -399.3531653973182642
  @DF-RKS Final Energy:  -399.35316330060334
    Total Energy =                       -399.3531633006032848
  @DF-RKS Final Energy:  -399.35316334768208
    Total Energy =                       -399.3531633476820843
  @DF-RKS Final Energy:  -399.35316359298139
    Total Energy =                       -399.3531635929814456
  @DF-RKS Final Energy:  -399.35316271252600
    Total Energy =                       -399.3531627125260002
  @DF-RKS Final Energy:  -399.35316539731838
    Total Energy =                       -399.3531653973184348
  @DF-RKS Final Energy:  -399.35316330060425
    Total Energy =                       -399.3531633006042512
  @DF-RKS Final Energy:  -399.35316334768430
    Total Energy =                       -399.3531633476843012
  @DF-RKS Final Energy:  -399.35316359298304
    Total Energy =                       -399.3531635929829804
  Basis Set: AUG-CC-PV(Q+D)Z
    Blend: AUG-CC-PV(Q+D)Z
  Basis Set: (AUG-CC-PV(Q+D)Z AUX)
    Blend: AUG-CC-PVQZ-JKFIT
  @DF-RKS Final Energy:  -399.35316271252731
    Total Energy =                       -399.3531627125272507
  Basis Set: AUG-CC-PV(Q+D)Z
    Blend: AUG-CC-PV(Q+D)Z
  Basis Set: (AUG-CC-PV(Q+D)Z AUX)
    Blend: AUG-CC-PVQZ-JKFIT
  @DF-RKS Final Energy:  -399.35316356323085
    Total Energy =                       -399.3531635632309076
  Multiplicity = 1
  Basis Set: AUG-CC-PV(Q+D)Z
    Blend: AUG-CC-PV(Q+D)Z
  Basis Set: (AUG-CC-PV(Q+D)Z AUX)
    Blend: AUG-CC-PVQZ-JKFIT
  @DF-RKS Final Energy:  -399.35316440175956
    Total Energy =                       -399.3531644017595568
    Molecular point group: cs

    Geometry (in Angstrom), charge = 0, multiplicity = 1:

       Center              X                  Y                   Z               Mass
    ------------   -----------------  -----------------  -----------------  -----------------
         S            0.000000000000    -0.000083658457    -0.054738120374    31.972071174400
         H            0.000000000000     0.969222709656     0.869516861856     1.007825032230
         H            0.000000000000    -0.966568742884     0.866986027623     1.007825032230

  Charge       = 0
  Multiplicity = 1
  Basis Set: AUG-CC-PV(Q+D)Z
    Blend: AUG-CC-PV(Q+D)Z
  Basis Set: (AUG-CC-PV(Q+D)Z AUX)
    Blend: AUG-CC-PVQZ-JKFIT

    Orbital Energies [Eh]
    ---------------------

    Doubly Occupied:

       1Ap   -88.896467     2Ap    -8.053539     3Ap    -6.010712
       4Ap    -6.007347     1App   -6.001459     5Ap    -0.872814
       6Ap    -0.552522     7Ap    -0.472278     2App   -0.367357

  @DF-RKS Final Energy:  -399.35316178756347

   => Energetics <=

    Nuclear Repulsion Energy =             12.9346954417148527
    One-Electron Energy =                -576.7059264642866765
    Two-Electron Energy =                 184.0752890110208568
    DFT Exchange-Correlation Energy =     -19.7329754490788218
    Empirical Dispersion Energy =           0.0000000000000000
    VV10 Nonlocal Energy =                  0.0757556730662464
    Total Energy =                       -399.3531617875635220

  Dipole Moment: [D]
     X:     0.0000      Y:     0.0001      Z:     1.0431     Total:     1.0431

  Vibration                       7                   8                   9
  Freq [cm^-1]                1220.6977           2762.4099           2763.5952
  Irrep                           A1                  B2                  A1
  Reduced mass [u]              1.0394              1.0400              1.0358
  Force const [mDyne/A]         0.9126              4.6759              4.6610

  ==> Thermochemistry Components <==

  Entropy, S
    Electronic S            0.000 [cal/(mol K)]        0.000 [J/(mol K)]       0.00000000 [mEh/K] (multiplicity = 1)
    Translational S        36.501 [cal/(mol K)]      152.721 [J/(mol K)]       0.05816835 [mEh/K] (mol. weight = 33.9877 [u], P = 101325.00 [Pa])
    Rotational S           12.573 [cal/(mol K)]       52.607 [J/(mol K)]       0.02003711 [mEh/K] (symmetry no. = 2)
    Vibrational S           0.038 [cal/(mol K)]        0.159 [J/(mol K)]       0.00006064 [mEh/K]
  Total S                  49.113 [cal/(mol K)]      205.488 [J/(mol K)]       0.07826610 [mEh/K]
  Correction S              0.000 [cal/(mol K)]        0.000 [J/(mol K)]       0.00000000 [mEh/K]

  Constant volume heat capacity, Cv
    Electronic Cv           0.000 [cal/(mol K)]        0.000 [J/(mol K)]       0.00000000 [mEh/K]
    Translational Cv        2.981 [cal/(mol K)]       12.472 [J/(mol K)]       0.00475022 [mEh/K]
    Rotational Cv           2.981 [cal/(mol K)]       12.472 [J/(mol K)]       0.00475022 [mEh/K]
    Vibrational Cv          0.193 [cal/(mol K)]        0.807 [J/(mol K)]       0.00030736 [mEh/K]
  Total Cv                  6.154 [cal/(mol K)]       25.750 [J/(mol K)]       0.00980779 [mEh/K]
  Correction Cv             0.000 [cal/(mol K)]        0.000 [J/(mol K)]       0.00000000 [mEh/K]

  Constant pressure heat capacity, Cp
    Electronic Cp           0.000 [cal/(mol K)]        0.000 [J/(mol K)]       0.00000000 [mEh/K]
    Translational Cp        4.968 [cal/(mol K)]       20.786 [J/(mol K)]       0.00791703 [mEh/K]
    Rotational Cp           2.981 [cal/(mol K)]       12.472 [J/(mol K)]       0.00475022 [mEh/K]
    Vibrational Cp          0.193 [cal/(mol K)]        0.807 [J/(mol K)]       0.00030736 [mEh/K]
  Total Cp                  8.142 [cal/(mol K)]       34.065 [J/(mol K)]       0.01297460 [mEh/K]
  Correction Cp             0.000 [cal/(mol K)]        0.000 [J/(mol K)]       0.00000000 [mEh/K]

  ==> Thermochemistry Energy Analysis <==

  Raw electronic energy, E0
  Total E0, Electronic energy at well bottom at 0 [K]                 -399.35316540 [Eh]

  Zero-point energy, ZPE_vib = Sum_i nu_i / 2
    Electronic ZPE          0.000 [kcal/mol]        0.000 [kJ/mol]       0.00000000 [Eh]
    Translational ZPE       0.000 [kcal/mol]        0.000 [kJ/mol]       0.00000000 [Eh]
    Rotational ZPE          0.000 [kcal/mol]        0.000 [kJ/mol]       0.00000000 [Eh]
    Vibrational ZPE         9.645 [kcal/mol]       40.354 [kJ/mol]       0.01537012 [Eh]        3373.351 [cm^-1]
  Correction ZPE            9.645 [kcal/mol]       40.354 [kJ/mol]       0.01537012 [Eh]        3373.351 [cm^-1]
  Total ZPE, Electronic energy at 0 [K]                               -399.33779528 [Eh]

  Thermal Energy, E (includes ZPE)
    Electronic E            0.000 [kcal/mol]        0.000 [kJ/mol]       0.00000000 [Eh]
    Translational E         0.889 [kcal/mol]        3.718 [kJ/mol]       0.00141628 [Eh]
    Rotational E            0.889 [kcal/mol]        3.718 [kJ/mol]       0.00141628 [Eh]
    Vibrational E           9.655 [kcal/mol]       40.395 [kJ/mol]       0.01538558 [Eh]
  Correction E             11.432 [kcal/mol]       47.832 [kJ/mol]       0.01821814 [Eh]
  Total E, Electronic energy at  298.15 [K]                           -399.33494726 [Eh]

  Enthalpy, H_trans = E_trans + k_B * T
    Electronic H            0.000 [kcal/mol]        0.000 [kJ/mol]       0.00000000 [Eh]
    Translational H         1.481 [kcal/mol]        6.197 [kJ/mol]       0.00236046 [Eh]
    Rotational H            0.889 [kcal/mol]        3.718 [kJ/mol]       0.00141628 [Eh]
    Vibrational H           9.655 [kcal/mol]       40.395 [kJ/mol]       0.01538558 [Eh]
  Correction H             12.025 [kcal/mol]       50.311 [kJ/mol]       0.01916232 [Eh]
  Total H, Enthalpy at  298.15 [K]                                    -399.33400308 [Eh]

  Gibbs free energy, G = H - T * S
    Electronic G            0.000 [kcal/mol]        0.000 [kJ/mol]       0.00000000 [Eh]
    Translational G        -9.402 [kcal/mol]      -39.336 [kJ/mol]      -0.01498243 [Eh]
    Rotational G           -2.860 [kcal/mol]      -11.966 [kJ/mol]      -0.00455779 [Eh]
    Vibrational G           9.643 [kcal/mol]       40.347 [kJ/mol]       0.01536750 [Eh]
  Correction G             -2.618 [kcal/mol]      -10.955 [kJ/mol]      -0.00417272 [Eh]
  Total G, Free enthalpy at  298.15 [K]                               -399.35733812 [Eh]

*** Psi4 exiting successfully. Buy a developer a beer!
