                               Psi4 1.3.2 release

  ==> Input File <==

--------------------------------------------------------------------------
memory 144 GB

molecule {
0 1
H 0.0000000000 0.0000000000 0.0000000000
C 0.0000000000 0.0000000000 1.0668000000
N 0.0000000000 0.0000000000 2.2232000000
}

set dynamic_level 1
set basis aug-cc-pV(Q+d)Z

optimize("wB97X-V")
frequencies("wB97X-V")
--------------------------------------------------------------------------

    Molecular point group: c2v
  Charge       = 0
  Multiplicity = 1
  Basis Set: AUG-CC-PV(Q+D)Z
    Blend: AUG-CC-PV(Q+D)Z
  Basis Set: (AUG-CC-PV(Q+D)Z AUX)
    Blend: AUG-CC-PVQZ-JKFIT
  @DF-RKS Final Energy:   -93.43337779551278
    Total Energy =                        -93.4333777955127971
    Molecular point group: c2v
  Basis Set: AUG-CC-PV(Q+D)Z
    Blend: AUG-CC-PV(Q+D)Z
  Basis Set: (AUG-CC-PV(Q+D)Z AUX)
    Blend: AUG-CC-PVQZ-JKFIT
  @DF-RKS Final Energy:   -93.43338236388028
    Total Energy =                        -93.4333823638802841
  Basis Set: AUG-CC-PV(Q+D)Z
    Blend: AUG-CC-PV(Q+D)Z
  Basis Set: (AUG-CC-PV(Q+D)Z AUX)
    Blend: AUG-CC-PVQZ-JKFIT
  @DF-RKS Final Energy:   -93.43336274278984
    Total Energy =                        -93.4333627427898392
  Basis Set: AUG-CC-PV(Q+D)Z
    Blend: AUG-CC-PV(Q+D)Z
  Basis Set: (AUG-CC-PV(Q+D)Z AUX)
    Blend: AUG-CC-PVQZ-JKFIT
  @DF-RKS Final Energy:   -93.43331769662997
    Total Energy =                        -93.4333176966299703
  @DF-RKS Final Energy:   -93.43343259408255
    Total Energy =                        -93.4334325940825465
  @DF-RKS Final Energy:   -93.43369350536750
    Total Energy =                        -93.4336935053675006
  @DF-RKS Final Energy:   -93.43368634153346
    Total Energy =                        -93.4336863415334591
  @DF-RKS Final Energy:   -93.43369035168976
    Total Energy =                        -93.4336903516897621
  @DF-RKS Final Energy:   -93.43369046229735
    Total Energy =                        -93.4336904622973492
  @DF-RKS Final Energy:   -93.43369090232515
    Total Energy =                        -93.4336909023251536
  @DF-RKS Final Energy:   -93.43369374745987
    Total Energy =                        -93.4336937474598699
  @DF-RKS Final Energy:   -93.43368870205200
    Total Energy =                        -93.4336887020520095
  @DF-RKS Final Energy:   -93.43368844360563
    Total Energy =                        -93.4336884436056465
  @DF-RKS Final Energy:   -93.43369093460463
    Total Energy =                        -93.4336909346046269
  @DF-RKS Final Energy:   -93.43369091059316
    Total Energy =                        -93.4336909105931568
  **** Optimization is complete! (in 3 steps) ****
    Final optimized geometry and variables:
  @DF-RKS Final Energy:   -93.43369374746015
    Total Energy =                        -93.4336937474601541
  @DF-RKS Final Energy:   -93.43368870205187
    Total Energy =                        -93.4336887020518674
  @DF-RKS Final Energy:   -93.43368844360543
    Total Energy =                        -93.4336884436054333
  @DF-RKS Final Energy:   -93.43369093460470
    Total Energy =                        -93.4336909346046980
  @DF-RKS Final Energy:   -93.43369091059346
    Total Energy =                        -93.4336909105934552
  @DF-RKS Final Energy:   -93.43369374746064
    Total Energy =                        -93.4336937474606515
  @DF-RKS Final Energy:   -93.43368870205221
    Total Energy =                        -93.4336887020522084
  @DF-RKS Final Energy:   -93.43368844360569
    Total Energy =                        -93.4336884436057034
  @DF-RKS Final Energy:   -93.43369093460490
    Total Energy =                        -93.4336909346049111
  @DF-RKS Final Energy:   -93.43369091059370
    Total Energy =                        -93.4336909105936826
  Basis Set: AUG-CC-PV(Q+D)Z
    Blend: AUG-CC-PV(Q+D)Z
  Basis Set: (AUG-CC-PV(Q+D)Z AUX)
    Blend: AUG-CC-PVQZ-JKFIT
  @DF-RKS Final Energy:   -93.43368790204310
    Total Energy =                        -93.4336879020431041
  Basis Set: AUG-CC-PV(Q+D)Z
    Blend: AUG-CC-PV(Q+D)Z
  Basis Set: (AUG-CC-PV(Q+D)Z AUX)
    Blend: AUG-CC-PVQZ-JKFIT
  @DF-RKS Final Energy:   -93.43368814773011
    Total Energy =                        -93.4336881477301233
  Multiplicity = 1
  Basis Set: AUG-CC-PV(Q+D)Z
    Blend: AUG-CC-PV(Q+D)Z
  Basis Set: (AUG-CC-PV(Q+D)Z AUX)
    Blend: AUG-CC-PVQZ-JKFIT
  @DF-RKS Final Energy:   -93.43369345944399
    Total Energy =                        -93.4336934594439867
    Molecular point group: cs

    Geometry (in Angstrom), charge = 0, multiplicity = 1:

       Center              X                  Y                   Z               Mass
    ------------   -----------------  -----------------  -----------------  -----------------
         H            0.000000000000    -0.002246173104    -1.622568331602     1.007825032230
         C            0.000000000000     0.000364791318    -0.553613362157    12.000000000000
         N            0.000000000000    -0.000150948737     0.591200569558    14.003074004430

  Charge       = 0
  Multiplicity = 1
  Basis Set: AUG-CC-PV(Q+D)Z
    Blend: AUG-CC-PV(Q+D)Z
  Basis Set: (AUG-CC-PV(Q+D)Z AUX)
    Blend: AUG-CC-PVQZ-JKFIT

    Orbital Energies [Eh]
    ---------------------

    Doubly Occupied:

       1Ap   -14.432736     2Ap   -10.322743     3Ap    -1.058236
       4Ap    -0.727953     5Ap    -0.500191     1App   -0.476763
       6Ap    -0.476763

  @DF-RKS Final Energy:   -93.43369346075610

   => Energetics <=

    Nuclear Repulsion Energy =             24.0575335305021021
    One-Electron Energy =                -173.1108182299113594
    Two-Electron Energy =                  64.3596645510473735
    DFT Exchange-Correlation Energy =      -8.7984635074659323
    Empirical Dispersion Energy =           0.0000000000000000
    VV10 Nonlocal Energy =                  0.0583901950717218
    Total Energy =                        -93.4336934607561034

  Dipole Moment: [D]
     X:     0.0000      Y:    -0.0024      Z:    -3.0869     Total:     3.0869

  Vibration                       6                   7                   8
  Freq [cm^-1]                 778.5142            780.2936           2235.3789
  Irrep                           B2                  B1                  A1
  Reduced mass [u]              1.3460              1.3460              4.9731
  Force const [mDyne/A]         0.4806              0.4828             14.6413

  Vibration                       9
  Freq [cm^-1]                3451.6313
  Irrep                           A1
  Reduced mass [u]              1.1978
  Force const [mDyne/A]         8.4081

  ==> Thermochemistry Components <==

  Entropy, S
    Electronic S            0.000 [cal/(mol K)]        0.000 [J/(mol K)]       0.00000000 [mEh/K] (multiplicity = 1)
    Translational S        35.816 [cal/(mol K)]      149.856 [J/(mol K)]       0.05707695 [mEh/K] (mol. weight = 27.0109 [u], P = 101325.00 [Pa])
    Rotational S           11.779 [cal/(mol K)]       49.281 [J/(mol K)]       0.01877028 [mEh/K] (symmetry no. = 1)
    Vibrational S           0.450 [cal/(mol K)]        1.883 [J/(mol K)]       0.00071703 [mEh/K]
  Total S                  48.045 [cal/(mol K)]      201.019 [J/(mol K)]       0.07656426 [mEh/K]
  Correction S              0.000 [cal/(mol K)]        0.000 [J/(mol K)]       0.00000000 [mEh/K]

  Constant volume heat capacity, Cv
    Electronic Cv           0.000 [cal/(mol K)]        0.000 [J/(mol K)]       0.00000000 [mEh/K]
    Translational Cv        2.981 [cal/(mol K)]       12.472 [J/(mol K)]       0.00475022 [mEh/K]
    Rotational Cv           1.987 [cal/(mol K)]        8.314 [J/(mol K)]       0.00316681 [mEh/K]
    Vibrational Cv          1.375 [cal/(mol K)]        5.755 [J/(mol K)]       0.00219183 [mEh/K]
  Total Cv                  6.343 [cal/(mol K)]       26.541 [J/(mol K)]       0.01010886 [mEh/K]
  Correction Cv             0.000 [cal/(mol K)]        0.000 [J/(mol K)]       0.00000000 [mEh/K]

  Constant pressure heat capacity, Cp
    Electronic Cp           0.000 [cal/(mol K)]        0.000 [J/(mol K)]       0.00000000 [mEh/K]
    Translational Cp        4.968 [cal/(mol K)]       20.786 [J/(mol K)]       0.00791703 [mEh/K]
    Rotational Cp           1.987 [cal/(mol K)]        8.314 [J/(mol K)]       0.00316681 [mEh/K]
    Vibrational Cp          1.375 [cal/(mol K)]        5.755 [J/(mol K)]       0.00219183 [mEh/K]
  Total Cp                  8.331 [cal/(mol K)]       34.855 [J/(mol K)]       0.01327567 [mEh/K]
  Correction Cp             0.000 [cal/(mol K)]        0.000 [J/(mol K)]       0.00000000 [mEh/K]

  ==> Thermochemistry Energy Analysis <==

  Raw electronic energy, E0
  Total E0, Electronic energy at well bottom at 0 [K]                  -93.43369375 [Eh]

  Zero-point energy, ZPE_vib = Sum_i nu_i / 2
    Electronic ZPE          0.000 [kcal/mol]        0.000 [kJ/mol]       0.00000000 [Eh]
    Translational ZPE       0.000 [kcal/mol]        0.000 [kJ/mol]       0.00000000 [Eh]
    Rotational ZPE          0.000 [kcal/mol]        0.000 [kJ/mol]       0.00000000 [Eh]
    Vibrational ZPE        10.358 [kcal/mol]       43.340 [kJ/mol]       0.01650719 [Eh]        3622.909 [cm^-1]
  Correction ZPE           10.358 [kcal/mol]       43.340 [kJ/mol]       0.01650719 [Eh]        3622.909 [cm^-1]
  Total ZPE, Electronic energy at 0 [K]                                -93.41718656 [Eh]

  Thermal Energy, E (includes ZPE)
    Electronic E            0.000 [kcal/mol]        0.000 [kJ/mol]       0.00000000 [Eh]
    Translational E         0.889 [kcal/mol]        3.718 [kJ/mol]       0.00141628 [Eh]
    Rotational E            0.592 [kcal/mol]        2.479 [kJ/mol]       0.00094418 [Eh]
    Vibrational E          10.465 [kcal/mol]       43.784 [kJ/mol]       0.01667651 [Eh]
  Correction E             11.946 [kcal/mol]       49.982 [kJ/mol]       0.01903698 [Eh]
  Total E, Electronic energy at  298.15 [K]                            -93.41465677 [Eh]

  Enthalpy, H_trans = E_trans + k_B * T
    Electronic H            0.000 [kcal/mol]        0.000 [kJ/mol]       0.00000000 [Eh]
    Translational H         1.481 [kcal/mol]        6.197 [kJ/mol]       0.00236046 [Eh]
    Rotational H            0.592 [kcal/mol]        2.479 [kJ/mol]       0.00094418 [Eh]
    Vibrational H          10.465 [kcal/mol]       43.784 [kJ/mol]       0.01667651 [Eh]
  Correction H             12.538 [kcal/mol]       52.461 [kJ/mol]       0.01998116 [Eh]
  Total H, Enthalpy at  298.15 [K]                                     -93.41371259 [Eh]

  Gibbs free energy, G = H - T * S
    Electronic G            0.000 [kcal/mol]        0.000 [kJ/mol]       0.00000000 [Eh]
    Translational G        -9.197 [kcal/mol]      -38.482 [kJ/mol]      -0.01465703 [Eh]
    Rotational G           -2.919 [kcal/mol]      -12.214 [kJ/mol]      -0.00465218 [Eh]
    Vibrational G          10.331 [kcal/mol]       43.223 [kJ/mol]       0.01646273 [Eh]
  Correction G             -1.786 [kcal/mol]       -7.473 [kJ/mol]      -0.00284647 [Eh]
  Total G, Free enthalpy at  298.15 [K]                                -93.43654022 [Eh]

*** Psi4 exiting successfully. Buy a developer a beer!
