                               Psi4 1.3.2 release

  ==> Input File <==

--------------------------------------------------------------------------
memory 144 GB

molecule {
0 1
N 0.0000000000 0.0000000000 0.0000000000
H 0.0000000000 0.0000000000 1.0535284100
O 1.1513717966 0.0000000000 -0.3743228181
}

set dynamic_level 1
set basis aug-cc-pV(Q+d)Z

optimize("wB97X-V")
frequencies("wB97X-V")
--------------------------------------------------------------------------

    Molecular point group: cs
  Charge       = 0
  Multiplicity = 1
  Basis Set: AUG-CC-PV(Q+D)Z
    Blend: AUG-CC-PV(Q+D)Z
  Basis Set: (AUG-CC-PV(Q+D)Z AUX)
    Blend: AUG-CC-PVQZ-JKFIT
  @DF-RKS Final Energy:  -130.49106363065042
    Total Energy =                       -130.4910636306504159
    Molecular point group: cs
  Basis Set: AUG-CC-PV(Q+D)Z
    Blend: AUG-CC-PV(Q+D)Z
  Basis Set: (AUG-CC-PV(Q+D)Z AUX)
    Blend: AUG-CC-PVQZ-JKFIT
  @DF-RKS Final Energy:  -130.49110639564279
    Total Energy =                       -130.4911063956428166
  Basis Set: AUG-CC-PV(Q+D)Z
    Blend: AUG-CC-PV(Q+D)Z
  Basis Set: (AUG-CC-PV(Q+D)Z AUX)
    Blend: AUG-CC-PVQZ-JKFIT
  @DF-RKS Final Energy:  -130.49101836342163
    Total Energy =                       -130.4910183634216310
  Basis Set: AUG-CC-PV(Q+D)Z
    Blend: AUG-CC-PV(Q+D)Z
  Basis Set: (AUG-CC-PV(Q+D)Z AUX)
    Blend: AUG-CC-PVQZ-JKFIT
  @DF-RKS Final Energy:  -130.49107109879199
    Total Energy =                       -130.4910710987919629
  @DF-RKS Final Energy:  -130.49105076407221
    Total Energy =                       -130.4910507640722130
  @DF-RKS Final Energy:  -130.49106674113716
    Total Energy =                       -130.4910667411371605
  @DF-RKS Final Energy:  -130.49105489784293
    Total Energy =                       -130.4910548978429290
  @DF-RKS Final Energy:  -130.49143249171314
    Total Energy =                       -130.4914324917131410
  @DF-RKS Final Energy:  -130.49144137226489
    Total Energy =                       -130.4914413722648874
  @DF-RKS Final Energy:  -130.49142089752692
    Total Energy =                       -130.4914208975269219
  @DF-RKS Final Energy:  -130.49143258137440
    Total Energy =                       -130.4914325813743687
  @DF-RKS Final Energy:  -130.49142705650826
    Total Energy =                       -130.4914270565082575
  @DF-RKS Final Energy:  -130.49142171788719
    Total Energy =                       -130.4914217178871922
  @DF-RKS Final Energy:  -130.49143760418173
    Total Energy =                       -130.4914376041817548
  @DF-RKS Final Energy:  -130.49144936361205
    Total Energy =                       -130.4914493636120199
  @DF-RKS Final Energy:  -130.49144462166495
    Total Energy =                       -130.4914446216649537
  @DF-RKS Final Energy:  -130.49145131490789
    Total Energy =                       -130.4914513149078630
  @DF-RKS Final Energy:  -130.49145336262970
    Total Energy =                       -130.4914533626296986
  @DF-RKS Final Energy:  -130.49144013461870
    Total Energy =                       -130.4914401346186992
  @DF-RKS Final Energy:  -130.49144859752190
    Total Energy =                       -130.4914485975218952
  **** Optimization is complete! (in 5 steps) ****
    Final optimized geometry and variables:
  @DF-RKS Final Energy:  -130.49146026411788
    Total Energy =                       -130.4914602641179044
  @DF-RKS Final Energy:  -130.49145889273504
    Total Energy =                       -130.4914588927350394
  @DF-RKS Final Energy:  -130.49145885973911
    Total Energy =                       -130.4914588597391116
  @DF-RKS Final Energy:  -130.49145764738319
    Total Energy =                       -130.4914576473832142
  @DF-RKS Final Energy:  -130.49145764835259
    Total Energy =                       -130.4914576483526218
  @DF-RKS Final Energy:  -130.49145751116026
    Total Energy =                       -130.4914575111602915
  @DF-RKS Final Energy:  -130.49145743653716
    Total Energy =                       -130.4914574365371607
  @DF-RKS Final Energy:  -130.49146026412217
    Total Energy =                       -130.4914602641221677
  @DF-RKS Final Energy:  -130.49145889274376
    Total Energy =                       -130.4914588927437649
  @DF-RKS Final Energy:  -130.49145885974386
    Total Energy =                       -130.4914588597438581
  @DF-RKS Final Energy:  -130.49145764738762
    Total Energy =                       -130.4914576473876195
  @DF-RKS Final Energy:  -130.49145764835677
    Total Energy =                       -130.4914576483567714
  @DF-RKS Final Energy:  -130.49145751116427
    Total Energy =                       -130.4914575111642705
  @DF-RKS Final Energy:  -130.49145743654154
    Total Energy =                       -130.4914574365415376
  @DF-RKS Final Energy:  -130.49145641193198
    Total Energy =                       -130.4914564119319778
  @DF-RKS Final Energy:  -130.49145644311722
    Total Energy =                       -130.4914564431172437
  Basis Set: AUG-CC-PV(Q+D)Z
    Blend: AUG-CC-PV(Q+D)Z
  Basis Set: (AUG-CC-PV(Q+D)Z AUX)
    Blend: AUG-CC-PVQZ-JKFIT
  @DF-RKS Final Energy:  -130.49145559911284
    Total Energy =                       -130.4914555991128395
  Basis Set: AUG-CC-PV(Q+D)Z
    Blend: AUG-CC-PV(Q+D)Z
  Basis Set: (AUG-CC-PV(Q+D)Z AUX)
    Blend: AUG-CC-PVQZ-JKFIT
  @DF-RKS Final Energy:  -130.49145569384331
    Total Energy =                       -130.4914556938433066
  Multiplicity = 1
  Basis Set: AUG-CC-PV(Q+D)Z
    Blend: AUG-CC-PV(Q+D)Z
  Basis Set: (AUG-CC-PV(Q+D)Z AUX)
    Blend: AUG-CC-PVQZ-JKFIT
  @DF-RKS Final Energy:  -130.49145777204868
    Total Energy =                       -130.4914577720486761
    Molecular point group: cs

    Geometry (in Angstrom), charge = 0, multiplicity = 1:

       Center              X                  Y                   Z               Mass
    ------------   -----------------  -----------------  -----------------  -----------------
         N            0.585302223535     0.156544248202     0.000000000000    14.003074004430
         H            0.591655573702     1.213016852571     0.000000000000     1.007825032230
         O           -0.549694440882    -0.213480942055     0.000000000000    15.994914619570

  Charge       = 0
  Multiplicity = 1
  Basis Set: AUG-CC-PV(Q+D)Z
    Blend: AUG-CC-PV(Q+D)Z
  Basis Set: (AUG-CC-PV(Q+D)Z AUX)
    Blend: AUG-CC-PVQZ-JKFIT

    Orbital Energies [Eh]
    ---------------------

    Doubly Occupied:

       1Ap   -19.299867     2Ap   -14.540039     3Ap    -1.320664
       4Ap    -0.855146     5Ap    -0.657358     1App   -0.583128
       6Ap    -0.576774     7Ap    -0.356441

  @DF-RKS Final Energy:  -130.49145784130371

   => Energetics <=

    Nuclear Repulsion Energy =             30.6468195493600817
    One-Electron Energy =                -238.4175588643548167
    Two-Electron Energy =                  88.3642896282997725
    DFT Exchange-Correlation Energy =     -11.1519655596779010
    Empirical Dispersion Energy =           0.0000000000000000
    VV10 Nonlocal Energy =                  0.0669574050691355
    Total Energy =                       -130.4914578413037134

  Dipole Moment: [D]
     X:     0.4332      Y:     1.6517      Z:     0.0000     Total:     1.7076

  Vibration                       7                   8                   9
  Freq [cm^-1]                1581.6873           1728.7775           2978.7140
  Irrep                           Ap                  Ap                  Ap
  Reduced mass [u]              1.1967             11.0076              1.0755
  Force const [mDyne/A]         1.7639             19.3829              5.6222

  ==> Thermochemistry Components <==

  Entropy, S
    Electronic S            0.000 [cal/(mol K)]        0.000 [J/(mol K)]       0.00000000 [mEh/K] (multiplicity = 1)
    Translational S        36.227 [cal/(mol K)]      151.576 [J/(mol K)]       0.05773217 [mEh/K] (mol. weight = 31.0058 [u], P = 101325.00 [Pa])
    Rotational S           16.439 [cal/(mol K)]       68.779 [J/(mol K)]       0.02619642 [mEh/K] (symmetry no. = 1)
    Vibrational S           0.013 [cal/(mol K)]        0.053 [J/(mol K)]       0.00002032 [mEh/K]
  Total S                  52.679 [cal/(mol K)]      220.408 [J/(mol K)]       0.08394891 [mEh/K]
  Correction S              0.000 [cal/(mol K)]        0.000 [J/(mol K)]       0.00000000 [mEh/K]

  Constant volume heat capacity, Cv
    Electronic Cv           0.000 [cal/(mol K)]        0.000 [J/(mol K)]       0.00000000 [mEh/K]
    Translational Cv        2.981 [cal/(mol K)]       12.472 [J/(mol K)]       0.00475022 [mEh/K]
    Rotational Cv           2.981 [cal/(mol K)]       12.472 [J/(mol K)]       0.00475022 [mEh/K]
    Vibrational Cv          0.089 [cal/(mol K)]        0.374 [J/(mol K)]       0.00014234 [mEh/K]
  Total Cv                  6.051 [cal/(mol K)]       25.317 [J/(mol K)]       0.00964277 [mEh/K]
  Correction Cv             0.000 [cal/(mol K)]        0.000 [J/(mol K)]       0.00000000 [mEh/K]

  Constant pressure heat capacity, Cp
    Electronic Cp           0.000 [cal/(mol K)]        0.000 [J/(mol K)]       0.00000000 [mEh/K]
    Translational Cp        4.968 [cal/(mol K)]       20.786 [J/(mol K)]       0.00791703 [mEh/K]
    Rotational Cp           2.981 [cal/(mol K)]       12.472 [J/(mol K)]       0.00475022 [mEh/K]
    Vibrational Cp          0.089 [cal/(mol K)]        0.374 [J/(mol K)]       0.00014234 [mEh/K]
  Total Cp                  8.038 [cal/(mol K)]       33.632 [J/(mol K)]       0.01280958 [mEh/K]
  Correction Cp             0.000 [cal/(mol K)]        0.000 [J/(mol K)]       0.00000000 [mEh/K]

  ==> Thermochemistry Energy Analysis <==

  Raw electronic energy, E0
  Total E0, Electronic energy at well bottom at 0 [K]                 -130.49146026 [Eh]

  Zero-point energy, ZPE_vib = Sum_i nu_i / 2
    Electronic ZPE          0.000 [kcal/mol]        0.000 [kJ/mol]       0.00000000 [Eh]
    Translational ZPE       0.000 [kcal/mol]        0.000 [kJ/mol]       0.00000000 [Eh]
    Rotational ZPE          0.000 [kcal/mol]        0.000 [kJ/mol]       0.00000000 [Eh]
    Vibrational ZPE         8.991 [kcal/mol]       37.618 [kJ/mol]       0.01432780 [Eh]        3144.589 [cm^-1]
  Correction ZPE            8.991 [kcal/mol]       37.618 [kJ/mol]       0.01432780 [Eh]        3144.589 [cm^-1]
  Total ZPE, Electronic energy at 0 [K]                               -130.47713246 [Eh]

  Thermal Energy, E (includes ZPE)
    Electronic E            0.000 [kcal/mol]        0.000 [kJ/mol]       0.00000000 [Eh]
    Translational E         0.889 [kcal/mol]        3.718 [kJ/mol]       0.00141628 [Eh]
    Rotational E            0.889 [kcal/mol]        3.718 [kJ/mol]       0.00141628 [Eh]
    Vibrational E           8.994 [kcal/mol]       37.632 [kJ/mol]       0.01433318 [Eh]
  Correction E             10.772 [kcal/mol]       45.069 [kJ/mol]       0.01716573 [Eh]
  Total E, Electronic energy at  298.15 [K]                           -130.47429453 [Eh]

  Enthalpy, H_trans = E_trans + k_B * T
    Electronic H            0.000 [kcal/mol]        0.000 [kJ/mol]       0.00000000 [Eh]
    Translational H         1.481 [kcal/mol]        6.197 [kJ/mol]       0.00236046 [Eh]
    Rotational H            0.889 [kcal/mol]        3.718 [kJ/mol]       0.00141628 [Eh]
    Vibrational H           8.994 [kcal/mol]       37.632 [kJ/mol]       0.01433318 [Eh]
  Correction H             11.364 [kcal/mol]       47.548 [kJ/mol]       0.01810992 [Eh]
  Total H, Enthalpy at  298.15 [K]                                    -130.47335035 [Eh]

  Gibbs free energy, G = H - T * S
    Electronic G            0.000 [kcal/mol]        0.000 [kJ/mol]       0.00000000 [Eh]
    Translational G        -9.320 [kcal/mol]      -38.995 [kJ/mol]      -0.01485238 [Eh]
    Rotational G           -4.012 [kcal/mol]      -16.788 [kJ/mol]      -0.00639419 [Eh]
    Vibrational G           8.990 [kcal/mol]       37.616 [kJ/mol]       0.01432712 [Eh]
  Correction G             -4.342 [kcal/mol]      -18.167 [kJ/mol]      -0.00691945 [Eh]
  Total G, Free enthalpy at  298.15 [K]                               -130.49837971 [Eh]

*** Psi4 exiting successfully. Buy a developer a beer!
