                               Psi4 1.3.2 release

  ==> Input File <==

--------------------------------------------------------------------------
memory 144 GB

molecule {
0 1
O 0.0000000000 0.0000000000 0.0000000000
H 0.0000000000 0.0000000000 0.9638997500
Cl 1.6530447720 0.0000000000 -0.3711121967
}

set dynamic_level 1
set basis aug-cc-pV(Q+d)Z

optimize("wB97X-V")
frequencies("wB97X-V")
--------------------------------------------------------------------------

    Molecular point group: cs
  Charge       = 0
  Multiplicity = 1
  Basis Set: AUG-CC-PV(Q+D)Z
    Blend: AUG-CC-PV(Q+D)Z
  Basis Set: (AUG-CC-PV(Q+D)Z AUX)
    Blend: AUG-CC-PVQZ-JKFIT
  @DF-RKS Final Energy:  -535.92607752547872
    Total Energy =                       -535.9260775254787177
    Molecular point group: cs
  Basis Set: AUG-CC-PV(Q+D)Z
    Blend: AUG-CC-PV(Q+D)Z
  Basis Set: (AUG-CC-PV(Q+D)Z AUX)
    Blend: AUG-CC-PVQZ-JKFIT
  @DF-RKS Final Energy:  -535.92609318436450
    Total Energy =                       -535.9260931843646176
  Basis Set: AUG-CC-PV(Q+D)Z
    Blend: AUG-CC-PV(Q+D)Z
  Basis Set: (AUG-CC-PV(Q+D)Z AUX)
    Blend: AUG-CC-PVQZ-JKFIT
  @DF-RKS Final Energy:  -535.92606126478279
    Total Energy =                       -535.9260612647827884
  Basis Set: AUG-CC-PV(Q+D)Z
    Blend: AUG-CC-PV(Q+D)Z
  Basis Set: (AUG-CC-PV(Q+D)Z AUX)
    Blend: AUG-CC-PVQZ-JKFIT
  @DF-RKS Final Energy:  -535.92607319574063
    Total Energy =                       -535.9260731957404005
  @DF-RKS Final Energy:  -535.92607240870859
    Total Energy =                       -535.9260724087085919
  @DF-RKS Final Energy:  -535.92606817421813
    Total Energy =                       -535.9260681742182442
  @DF-RKS Final Energy:  -535.92608086622658
    Total Energy =                       -535.9260808662264708
  @DF-RKS Final Energy:  -535.92625910404536
    Total Energy =                       -535.9262591040454708
  @DF-RKS Final Energy:  -535.92626452433251
    Total Energy =                       -535.9262645243325096
  @DF-RKS Final Energy:  -535.92625305279921
    Total Energy =                       -535.9262530527990975
  @DF-RKS Final Energy:  -535.92625257864154
    Total Energy =                       -535.9262525786415381
  @DF-RKS Final Energy:  -535.92625637670085
    Total Energy =                       -535.9262563767008487
  @DF-RKS Final Energy:  -535.92625517190754
    Total Energy =                       -535.9262551719075418
  @DF-RKS Final Energy:  -535.92625691173282
    Total Energy =                       -535.9262569117327075
  @DF-RKS Final Energy:  -535.92628498741010
    Total Energy =                       -535.9262849874100993
  @DF-RKS Final Energy:  -535.92628439807504
    Total Energy =                       -535.9262843980750404
  @DF-RKS Final Energy:  -535.92628492222570
    Total Energy =                       -535.9262849222257046
  @DF-RKS Final Energy:  -535.92628024967962
    Total Energy =                       -535.9262802496795075
  @DF-RKS Final Energy:  -535.92628054038289
    Total Energy =                       -535.9262805403830043
  @DF-RKS Final Energy:  -535.92628198923933
    Total Energy =                       -535.9262819892392145
  **** Optimization is complete! (in 3 steps) ****
    Final optimized geometry and variables:
  @DF-RKS Final Energy:  -535.92628498741101
    Total Energy =                       -535.9262849874110088
  @DF-RKS Final Energy:  -535.92628439874954
    Total Energy =                       -535.9262843987496581
  @DF-RKS Final Energy:  -535.92628492112397
    Total Energy =                       -535.9262849211239654
  @DF-RKS Final Energy:  -535.92628024789917
    Total Energy =                       -535.9262802478991716
  @DF-RKS Final Energy:  -535.92628053939416
    Total Energy =                       -535.9262805393942699
  @DF-RKS Final Energy:  -535.92628198897012
    Total Energy =                       -535.9262819889701177
  @DF-RKS Final Energy:  -535.92628177315635
    Total Energy =                       -535.9262817731563473
  @DF-RKS Final Energy:  -535.92628498741124
    Total Energy =                       -535.9262849874111225
  @DF-RKS Final Energy:  -535.92628439875023
    Total Energy =                       -535.9262843987502265
  @DF-RKS Final Energy:  -535.92628492112442
    Total Energy =                       -535.9262849211244202
  @DF-RKS Final Energy:  -535.92628024789997
    Total Energy =                       -535.9262802478999674
  @DF-RKS Final Energy:  -535.92628053939427
    Total Energy =                       -535.9262805393942699
  @DF-RKS Final Energy:  -535.92628198897080
    Total Energy =                       -535.9262819889707998
  @DF-RKS Final Energy:  -535.92628177315601
    Total Energy =                       -535.9262817731560062
  @DF-RKS Final Energy:  -535.92628044583932
    Total Energy =                       -535.9262804458393248
  @DF-RKS Final Energy:  -535.92627964106839
    Total Energy =                       -535.9262796410685041
  Basis Set: AUG-CC-PV(Q+D)Z
    Blend: AUG-CC-PV(Q+D)Z
  Basis Set: (AUG-CC-PV(Q+D)Z AUX)
    Blend: AUG-CC-PVQZ-JKFIT
  @DF-RKS Final Energy:  -535.92628195988254
    Total Energy =                       -535.9262819598825445
  Basis Set: AUG-CC-PV(Q+D)Z
    Blend: AUG-CC-PV(Q+D)Z
  Basis Set: (AUG-CC-PV(Q+D)Z AUX)
    Blend: AUG-CC-PVQZ-JKFIT
  @DF-RKS Final Energy:  -535.92628164312123
    Total Energy =                       -535.9262816431212286
  Multiplicity = 1
  Basis Set: AUG-CC-PV(Q+D)Z
    Blend: AUG-CC-PV(Q+D)Z
  Basis Set: (AUG-CC-PV(Q+D)Z AUX)
    Blend: AUG-CC-PVQZ-JKFIT
  @DF-RKS Final Energy:  -535.92628332686650
    Total Energy =                       -535.9262833268664963
    Molecular point group: cs

    Geometry (in Angstrom), charge = 0, multiplicity = 1:

       Center              X                  Y                   Z               Mass
    ------------   -----------------  -----------------  -----------------  -----------------
         O            1.097327799741     0.232424908666     0.000000000000    15.994914619570
         H            1.113418989465     1.197047426172     0.000000000000     1.007825032230
         CL          -0.534012258432    -0.140811909822     0.000000000000    34.968852682000

  Charge       = 0
  Multiplicity = 1
  Basis Set: AUG-CC-PV(Q+D)Z
    Blend: AUG-CC-PV(Q+D)Z
  Basis Set: (AUG-CC-PV(Q+D)Z AUX)
    Blend: AUG-CC-PVQZ-JKFIT

    Orbital Energies [Eh]
    ---------------------

    Doubly Occupied:

       1Ap  -101.596663     2Ap   -19.287733     3Ap    -9.608704
       4Ap    -7.369503     5Ap    -7.354152     1App   -7.353799
       6Ap    -1.212891     7Ap    -0.928429     8Ap    -0.652807
       9Ap    -0.559903     2App   -0.535061    10Ap    -0.426778
       3App   -0.392714

  @DF-RKS Final Energy:  -535.92628322362259

   => Energetics <=

    Nuclear Repulsion Energy =             51.6317358557643757
    One-Electron Energy =                -841.7657950022083924
    Two-Electron Energy =                 281.7751865063103764
    DFT Exchange-Correlation Energy =     -27.6761049444953500
    Empirical Dispersion Energy =           0.0000000000000000
    VV10 Nonlocal Energy =                  0.1086943610063005
    Total Energy =                       -535.9262832236225904

  Dipole Moment: [D]
     X:     0.0065      Y:     1.5434      Z:     0.0000     Total:     1.5435

  Vibration                       7                   8                   9
  Freq [cm^-1]                 807.4121           1286.6303           3829.1948
  Irrep                           Ap                  Ap                  Ap
  Reduced mass [u]             17.4816              1.0742              1.0678
  Force const [mDyne/A]         6.7146              1.0478              9.2249

  ==> Thermochemistry Components <==

  Entropy, S
    Electronic S            0.000 [cal/(mol K)]        0.000 [J/(mol K)]       0.00000000 [mEh/K] (multiplicity = 1)
    Translational S        37.767 [cal/(mol K)]      158.018 [J/(mol K)]       0.06018576 [mEh/K] (mol. weight = 51.9716 [u], P = 101325.00 [Pa])
    Rotational S           18.345 [cal/(mol K)]       76.757 [J/(mol K)]       0.02923509 [mEh/K] (symmetry no. = 1)
    Vibrational S           0.230 [cal/(mol K)]        0.963 [J/(mol K)]       0.00036689 [mEh/K]
  Total S                  56.343 [cal/(mol K)]      235.738 [J/(mol K)]       0.08978774 [mEh/K]
  Correction S              0.000 [cal/(mol K)]        0.000 [J/(mol K)]       0.00000000 [mEh/K]

  Constant volume heat capacity, Cv
    Electronic Cv           0.000 [cal/(mol K)]        0.000 [J/(mol K)]       0.00000000 [mEh/K]
    Translational Cv        2.981 [cal/(mol K)]       12.472 [J/(mol K)]       0.00475022 [mEh/K]
    Rotational Cv           2.981 [cal/(mol K)]       12.472 [J/(mol K)]       0.00475022 [mEh/K]
    Vibrational Cv          0.793 [cal/(mol K)]        3.319 [J/(mol K)]       0.00126425 [mEh/K]
  Total Cv                  6.755 [cal/(mol K)]       28.263 [J/(mol K)]       0.01076468 [mEh/K]
  Correction Cv             0.000 [cal/(mol K)]        0.000 [J/(mol K)]       0.00000000 [mEh/K]

  Constant pressure heat capacity, Cp
    Electronic Cp           0.000 [cal/(mol K)]        0.000 [J/(mol K)]       0.00000000 [mEh/K]
    Translational Cp        4.968 [cal/(mol K)]       20.786 [J/(mol K)]       0.00791703 [mEh/K]
    Rotational Cp           2.981 [cal/(mol K)]       12.472 [J/(mol K)]       0.00475022 [mEh/K]
    Vibrational Cp          0.793 [cal/(mol K)]        3.319 [J/(mol K)]       0.00126425 [mEh/K]
  Total Cp                  8.742 [cal/(mol K)]       36.577 [J/(mol K)]       0.01393149 [mEh/K]
  Correction Cp             0.000 [cal/(mol K)]        0.000 [J/(mol K)]       0.00000000 [mEh/K]

  ==> Thermochemistry Energy Analysis <==

  Raw electronic energy, E0
  Total E0, Electronic energy at well bottom at 0 [K]                 -535.92628499 [Eh]

  Zero-point energy, ZPE_vib = Sum_i nu_i / 2
    Electronic ZPE          0.000 [kcal/mol]        0.000 [kJ/mol]       0.00000000 [Eh]
    Translational ZPE       0.000 [kcal/mol]        0.000 [kJ/mol]       0.00000000 [Eh]
    Rotational ZPE          0.000 [kcal/mol]        0.000 [kJ/mol]       0.00000000 [Eh]
    Vibrational ZPE         8.468 [kcal/mol]       35.429 [kJ/mol]       0.01349413 [Eh]        2961.619 [cm^-1]
  Correction ZPE            8.468 [kcal/mol]       35.429 [kJ/mol]       0.01349413 [Eh]        2961.619 [cm^-1]
  Total ZPE, Electronic energy at 0 [K]                               -535.91279086 [Eh]

  Thermal Energy, E (includes ZPE)
    Electronic E            0.000 [kcal/mol]        0.000 [kJ/mol]       0.00000000 [Eh]
    Translational E         0.889 [kcal/mol]        3.718 [kJ/mol]       0.00141628 [Eh]
    Rotational E            0.889 [kcal/mol]        3.718 [kJ/mol]       0.00141628 [Eh]
    Vibrational E           8.523 [kcal/mol]       35.660 [kJ/mol]       0.01358223 [Eh]
  Correction E             10.300 [kcal/mol]       43.097 [kJ/mol]       0.01641479 [Eh]
  Total E, Electronic energy at  298.15 [K]                           -535.90987020 [Eh]

  Enthalpy, H_trans = E_trans + k_B * T
    Electronic H            0.000 [kcal/mol]        0.000 [kJ/mol]       0.00000000 [Eh]
    Translational H         1.481 [kcal/mol]        6.197 [kJ/mol]       0.00236046 [Eh]
    Rotational H            0.889 [kcal/mol]        3.718 [kJ/mol]       0.00141628 [Eh]
    Vibrational H           8.523 [kcal/mol]       35.660 [kJ/mol]       0.01358223 [Eh]
  Correction H             10.893 [kcal/mol]       45.576 [kJ/mol]       0.01735897 [Eh]
  Total H, Enthalpy at  298.15 [K]                                    -535.90892601 [Eh]

  Gibbs free energy, G = H - T * S
    Electronic G            0.000 [kcal/mol]        0.000 [kJ/mol]       0.00000000 [Eh]
    Translational G        -9.779 [kcal/mol]      -40.916 [kJ/mol]      -0.01558392 [Eh]
    Rotational G           -4.581 [kcal/mol]      -19.167 [kJ/mol]      -0.00730016 [Eh]
    Vibrational G           8.454 [kcal/mol]       35.373 [kJ/mol]       0.01347285 [Eh]
  Correction G             -5.906 [kcal/mol]      -24.709 [kJ/mol]      -0.00941124 [Eh]
  Total G, Free enthalpy at  298.15 [K]                               -535.93569623 [Eh]

*** Psi4 exiting successfully. Buy a developer a beer!
