                               Psi4 1.3.2 release

  ==> Input File <==

--------------------------------------------------------------------------
memory 144 GB

molecule {
0 1
N 0.0000000000 0.0000000000 0.0000000000
N 0.0000000000 0.0000000000 1.1003000000
}

set dynamic_level 1
set basis aug-cc-pV(Q+d)Z

optimize("wB97X-V")
frequencies("wB97X-V")
--------------------------------------------------------------------------

    Molecular point group: d2h
  Charge       = 0
  Multiplicity = 1
  Basis Set: AUG-CC-PV(Q+D)Z
    Blend: AUG-CC-PV(Q+D)Z
  Basis Set: (AUG-CC-PV(Q+D)Z AUX)
    Blend: AUG-CC-PVQZ-JKFIT
  @DF-RKS Final Energy:  -109.54392501075280
    Total Energy =                       -109.5439250107528153
    Molecular point group: d2h
  Basis Set: AUG-CC-PV(Q+D)Z
    Blend: AUG-CC-PV(Q+D)Z
  Basis Set: (AUG-CC-PV(Q+D)Z AUX)
    Blend: AUG-CC-PVQZ-JKFIT
  @DF-RKS Final Energy:  -109.54386587603359
    Total Energy =                       -109.5438658760335926
  Basis Set: AUG-CC-PV(Q+D)Z
    Blend: AUG-CC-PV(Q+D)Z
  Basis Set: (AUG-CC-PV(Q+D)Z AUX)
    Blend: AUG-CC-PVQZ-JKFIT
  @DF-RKS Final Energy:  -109.54397867987537
    Total Energy =                       -109.5439786798753659
  Basis Set: AUG-CC-PV(Q+D)Z
    Blend: AUG-CC-PV(Q+D)Z
  Basis Set: (AUG-CC-PV(Q+D)Z AUX)
    Blend: AUG-CC-PVQZ-JKFIT
  @DF-RKS Final Energy:  -109.54420642563666
    Total Energy =                       -109.5442064256366592
  @DF-RKS Final Energy:  -109.54419757433138
    Total Energy =                       -109.5441975743313776
  @DF-RKS Final Energy:  -109.54420945679031
    Total Energy =                       -109.5442094567903126
  @DF-RKS Final Energy:  -109.54420945371069
    Total Energy =                       -109.5442094537106925
  @DF-RKS Final Energy:  -109.54420673254424
    Total Energy =                       -109.5442067325442395
  @DF-RKS Final Energy:  -109.54420631206564
    Total Energy =                       -109.5442063120656400
  **** Optimization is complete! (in 3 steps) ****
    Final optimized geometry and variables:
  @DF-RKS Final Energy:  -109.54420945371054
    Total Energy =                       -109.5442094537105504
  @DF-RKS Final Energy:  -109.54420673254438
    Total Energy =                       -109.5442067325443816
  Basis Set: AUG-CC-PV(Q+D)Z
    Blend: AUG-CC-PV(Q+D)Z
  Basis Set: (AUG-CC-PV(Q+D)Z AUX)
    Blend: AUG-CC-PVQZ-JKFIT
  @DF-RKS Final Energy:  -109.54420631206595
    Total Energy =                       -109.5442063120659526
  Basis Set: AUG-CC-PV(Q+D)Z
    Blend: AUG-CC-PV(Q+D)Z
  Basis Set: (AUG-CC-PV(Q+D)Z AUX)
    Blend: AUG-CC-PVQZ-JKFIT
  @DF-RKS Final Energy:  -109.54420945371064
    Total Energy =                       -109.5442094537106357
  Multiplicity = 1
  Basis Set: AUG-CC-PV(Q+D)Z
    Blend: AUG-CC-PV(Q+D)Z
  Basis Set: (AUG-CC-PV(Q+D)Z AUX)
    Blend: AUG-CC-PVQZ-JKFIT
  @DF-RKS Final Energy:  -109.54420673254452
    Total Energy =                       -109.5442067325445095
    Molecular point group: d2h

    Geometry (in Angstrom), charge = 0, multiplicity = 1:

       Center              X                  Y                   Z               Mass
    ------------   -----------------  -----------------  -----------------  -----------------
         N            0.000000000000     0.000000000000    -0.544647770206    14.003074004430
         N            0.000000000000     0.000000000000     0.544647770206    14.003074004430

  Charge       = 0
  Multiplicity = 1
  Basis Set: AUG-CC-PV(Q+D)Z
    Blend: AUG-CC-PV(Q+D)Z
  Basis Set: (AUG-CC-PV(Q+D)Z AUX)
    Blend: AUG-CC-PVQZ-JKFIT

    Orbital Energies [Eh]
    ---------------------

    Doubly Occupied:

       1Ag   -14.510074     1B1u  -14.508166     2Ag    -1.261279
       2B1u   -0.672885     1B3u   -0.581905     1B2u   -0.581905
       3Ag    -0.547543

  @DF-RKS Final Energy:  -109.54420631206587

   => Energetics <=

    Nuclear Repulsion Energy =             23.8040847142530119
    One-Electron Energy =                -194.8481752133290854
    Two-Electron Energy =                  71.1396295005780388
    DFT Exchange-Correlation Energy =      -9.6986883817256775
    Empirical Dispersion Energy =           0.0000000000000000
    VV10 Nonlocal Energy =                  0.0589430681578475
    Total Energy =                       -109.5442063120658673

  Dipole Moment: [D]
     X:     0.0000      Y:     0.0000      Z:     0.0000     Total:     0.0000

  Vibration                       6
  Freq [cm^-1]                2489.3572
  Irrep                           Ag
  Reduced mass [u]             14.0031
  Force const [mDyne/A]        51.1267

  ==> Thermochemistry Components <==

  Entropy, S
    Electronic S            0.000 [cal/(mol K)]        0.000 [J/(mol K)]       0.00000000 [mEh/K] (multiplicity = 1)
    Translational S        35.924 [cal/(mol K)]      150.307 [J/(mol K)]       0.05724883 [mEh/K] (mol. weight = 28.0061 [u], P = 101325.00 [Pa])
    Rotational S            9.807 [cal/(mol K)]       41.031 [J/(mol K)]       0.01562783 [mEh/K] (symmetry no. = 2)
    Vibrational S           0.000 [cal/(mol K)]        0.001 [J/(mol K)]       0.00000025 [mEh/K]
  Total S                  45.731 [cal/(mol K)]      191.338 [J/(mol K)]       0.07287691 [mEh/K]
  Correction S              0.000 [cal/(mol K)]        0.000 [J/(mol K)]       0.00000000 [mEh/K]

  Constant volume heat capacity, Cv
    Electronic Cv           0.000 [cal/(mol K)]        0.000 [J/(mol K)]       0.00000000 [mEh/K]
    Translational Cv        2.981 [cal/(mol K)]       12.472 [J/(mol K)]       0.00475022 [mEh/K]
    Rotational Cv           1.987 [cal/(mol K)]        8.314 [J/(mol K)]       0.00316681 [mEh/K]
    Vibrational Cv          0.002 [cal/(mol K)]        0.007 [J/(mol K)]       0.00000277 [mEh/K]
  Total Cv                  4.970 [cal/(mol K)]       20.793 [J/(mol K)]       0.00791980 [mEh/K]
  Correction Cv             0.000 [cal/(mol K)]        0.000 [J/(mol K)]       0.00000000 [mEh/K]

  Constant pressure heat capacity, Cp
    Electronic Cp           0.000 [cal/(mol K)]        0.000 [J/(mol K)]       0.00000000 [mEh/K]
    Translational Cp        4.968 [cal/(mol K)]       20.786 [J/(mol K)]       0.00791703 [mEh/K]
    Rotational Cp           1.987 [cal/(mol K)]        8.314 [J/(mol K)]       0.00316681 [mEh/K]
    Vibrational Cp          0.002 [cal/(mol K)]        0.007 [J/(mol K)]       0.00000277 [mEh/K]
  Total Cp                  6.957 [cal/(mol K)]       29.108 [J/(mol K)]       0.01108661 [mEh/K]
  Correction Cp             0.000 [cal/(mol K)]        0.000 [J/(mol K)]       0.00000000 [mEh/K]

  ==> Thermochemistry Energy Analysis <==

  Raw electronic energy, E0
  Total E0, Electronic energy at well bottom at 0 [K]                 -109.54420945 [Eh]

  Zero-point energy, ZPE_vib = Sum_i nu_i / 2
    Electronic ZPE          0.000 [kcal/mol]        0.000 [kJ/mol]       0.00000000 [Eh]
    Translational ZPE       0.000 [kcal/mol]        0.000 [kJ/mol]       0.00000000 [Eh]
    Rotational ZPE          0.000 [kcal/mol]        0.000 [kJ/mol]       0.00000000 [Eh]
    Vibrational ZPE         3.559 [kcal/mol]       14.890 [kJ/mol]       0.00567117 [Eh]        1244.679 [cm^-1]
  Correction ZPE            3.559 [kcal/mol]       14.890 [kJ/mol]       0.00567117 [Eh]        1244.679 [cm^-1]
  Total ZPE, Electronic energy at 0 [K]                               -109.53853828 [Eh]

  Thermal Energy, E (includes ZPE)
    Electronic E            0.000 [kcal/mol]        0.000 [kJ/mol]       0.00000000 [Eh]
    Translational E         0.889 [kcal/mol]        3.718 [kJ/mol]       0.00141628 [Eh]
    Rotational E            0.592 [kcal/mol]        2.479 [kJ/mol]       0.00094418 [Eh]
    Vibrational E           3.559 [kcal/mol]       14.890 [kJ/mol]       0.00567124 [Eh]
  Correction E              5.040 [kcal/mol]       21.087 [kJ/mol]       0.00803170 [Eh]
  Total E, Electronic energy at  298.15 [K]                           -109.53617775 [Eh]

  Enthalpy, H_trans = E_trans + k_B * T
    Electronic H            0.000 [kcal/mol]        0.000 [kJ/mol]       0.00000000 [Eh]
    Translational H         1.481 [kcal/mol]        6.197 [kJ/mol]       0.00236046 [Eh]
    Rotational H            0.592 [kcal/mol]        2.479 [kJ/mol]       0.00094418 [Eh]
    Vibrational H           3.559 [kcal/mol]       14.890 [kJ/mol]       0.00567124 [Eh]
  Correction H              5.632 [kcal/mol]       23.566 [kJ/mol]       0.00897589 [Eh]
  Total H, Enthalpy at  298.15 [K]                                    -109.53523357 [Eh]

  Gibbs free energy, G = H - T * S
    Electronic G            0.000 [kcal/mol]        0.000 [kJ/mol]       0.00000000 [Eh]
    Translational G        -9.230 [kcal/mol]      -38.617 [kJ/mol]      -0.01470828 [Eh]
    Rotational G           -2.331 [kcal/mol]       -9.754 [kJ/mol]      -0.00371525 [Eh]
    Vibrational G           3.559 [kcal/mol]       14.890 [kJ/mol]       0.00567117 [Eh]
  Correction G             -8.002 [kcal/mol]      -33.481 [kJ/mol]      -0.01275236 [Eh]
  Total G, Free enthalpy at  298.15 [K]                               -109.55696182 [Eh]

*** Psi4 exiting successfully. Buy a developer a beer!
