                               Psi4 1.3.2 release

  ==> Input File <==

--------------------------------------------------------------------------
memory 144 GB

molecule {
0 1
N 0.0000000000 0.0000000000 0.0000000000
H 0.0000000000 0.0000000000 1.0124000000
H 0.9722998620 0.0000000000 -0.2821112163
H -0.3756003142 0.8968229622 -0.2821112163
}

set dynamic_level 1
set basis aug-cc-pV(Q+d)Z

optimize("wB97X-V")
frequencies("wB97X-V")
--------------------------------------------------------------------------

    Molecular point group: cs
  Charge       = 0
  Multiplicity = 1
  Basis Set: AUG-CC-PV(Q+D)Z
    Blend: AUG-CC-PV(Q+D)Z
  Basis Set: (AUG-CC-PV(Q+D)Z AUX)
    Blend: AUG-CC-PVQZ-JKFIT
  @DF-RKS Final Energy:   -56.56634517733951
    Total Energy =                        -56.5663451773395067
    Molecular point group: cs
  Basis Set: AUG-CC-PV(Q+D)Z
    Blend: AUG-CC-PV(Q+D)Z
  Basis Set: (AUG-CC-PV(Q+D)Z AUX)
    Blend: AUG-CC-PVQZ-JKFIT
  @DF-RKS Final Energy:   -56.56633776996743
    Total Energy =                        -56.5663377699674328
  Basis Set: AUG-CC-PV(Q+D)Z
    Blend: AUG-CC-PV(Q+D)Z
  Basis Set: (AUG-CC-PV(Q+D)Z AUX)
    Blend: AUG-CC-PVQZ-JKFIT
  @DF-RKS Final Energy:   -56.56634707883436
    Total Energy =                        -56.5663470788343616
  Basis Set: AUG-CC-PV(Q+D)Z
    Blend: AUG-CC-PV(Q+D)Z
  Basis Set: (AUG-CC-PV(Q+D)Z AUX)
    Blend: AUG-CC-PVQZ-JKFIT
  @DF-RKS Final Energy:   -56.56633765568382
    Total Energy =                        -56.5663376556838102
  @DF-RKS Final Energy:   -56.56634753365662
    Total Energy =                        -56.5663475336566108
  @DF-RKS Final Energy:   -56.56633131746628
    Total Energy =                        -56.5663313174662790
  @DF-RKS Final Energy:   -56.56635043737523
    Total Energy =                        -56.5663504373752275
  @DF-RKS Final Energy:   -56.56633130344185
    Total Energy =                        -56.5663313034418422
  @DF-RKS Final Energy:   -56.56635045421750
    Total Energy =                        -56.5663504542174991
  @DF-RKS Final Energy:   -56.56639997253823
    Total Energy =                        -56.5663999725382354
  @DF-RKS Final Energy:   -56.56639371169516
    Total Energy =                        -56.5663937116951629
  @DF-RKS Final Energy:   -56.56640079673078
    Total Energy =                        -56.5664007967307825
  @DF-RKS Final Energy:   -56.56639367446715
    Total Energy =                        -56.5663936744671503
  @DF-RKS Final Energy:   -56.56640122587930
    Total Energy =                        -56.5664012258792965
  @DF-RKS Final Energy:   -56.56639948295397
    Total Energy =                        -56.5663994829539689
  @DF-RKS Final Energy:   -56.56639187390720
    Total Energy =                        -56.5663918739072002
  @DF-RKS Final Energy:   -56.56639949181915
    Total Energy =                        -56.5663994918191548
  @DF-RKS Final Energy:   -56.56639185932419
    Total Energy =                        -56.5663918593241917
  @DF-RKS Final Energy:   -56.56640639606633
    Total Energy =                        -56.5664063960663341
  @DF-RKS Final Energy:   -56.56640289733841
    Total Energy =                        -56.5664028973384063
  **** Optimization is complete! (in 3 steps) ****
    Final optimized geometry and variables:
  @DF-RKS Final Energy:   -56.56640340106605
    Total Energy =                        -56.5664034010660473
  @DF-RKS Final Energy:   -56.56640074708990
    Total Energy =                        -56.5664007470899080
  @DF-RKS Final Energy:   -56.56640340234758
    Total Energy =                        -56.5664034023475821
  @DF-RKS Final Energy:   -56.56640074980687
    Total Energy =                        -56.5664007498068742
  @DF-RKS Final Energy:   -56.56640586062797
    Total Energy =                        -56.5664058606279738
  @DF-RKS Final Energy:   -56.56640261572830
    Total Energy =                        -56.5664026157283004
  @DF-RKS Final Energy:   -56.56639790694182
    Total Energy =                        -56.5663979069418161
  @DF-RKS Final Energy:   -56.56639896934497
    Total Energy =                        -56.5663989693449736
  @DF-RKS Final Energy:   -56.56640310650053
    Total Energy =                        -56.5664031065005304
  @DF-RKS Final Energy:   -56.56640411772742
    Total Energy =                        -56.5664041177274228
  @DF-RKS Final Energy:   -56.56640289561935
    Total Energy =                        -56.5664028956193405
  @DF-RKS Final Energy:   -56.56640402170668
    Total Energy =                        -56.5664040217066812
  @DF-RKS Final Energy:   -56.56639843640671
    Total Energy =                        -56.5663984364067147
  @DF-RKS Final Energy:   -56.56639941537547
    Total Energy =                        -56.5663994153754714
  @DF-RKS Final Energy:   -56.56639325739734
    Total Energy =                        -56.5663932573973298
  @DF-RKS Final Energy:   -56.56639853776176
    Total Energy =                        -56.5663985377617564
  Basis Set: AUG-CC-PV(Q+D)Z
    Blend: AUG-CC-PV(Q+D)Z
  Basis Set: (AUG-CC-PV(Q+D)Z AUX)
    Blend: AUG-CC-PVQZ-JKFIT
  @DF-RKS Final Energy:   -56.56640223669341
    Total Energy =                        -56.5664022366934063
  Basis Set: AUG-CC-PV(Q+D)Z
    Blend: AUG-CC-PV(Q+D)Z
  Basis Set: (AUG-CC-PV(Q+D)Z AUX)
    Blend: AUG-CC-PVQZ-JKFIT
  @DF-RKS Final Energy:   -56.56640352206598
    Total Energy =                        -56.5664035220659898
  Multiplicity = 1
  Basis Set: AUG-CC-PV(Q+D)Z
    Blend: AUG-CC-PV(Q+D)Z
  Basis Set: (AUG-CC-PV(Q+D)Z AUX)
    Blend: AUG-CC-PVQZ-JKFIT
  @DF-RKS Final Energy:   -56.56640422170210
    Total Energy =                        -56.5664042217021006
    Molecular point group: c1

    Geometry (in Angstrom), charge = 0, multiplicity = 1:

       Center              X                  Y                   Z               Mass
    ------------   -----------------  -----------------  -----------------  -----------------
         N           -0.042435732848    -0.050997490355    -0.000265536486    14.003074004430
         H            0.557884190044    -0.063391539320     0.815749179031     1.007825032230
         H            0.558828655450    -0.066376996798    -0.814811202402     1.007825032230
         H           -0.527095909521     0.838345529786     0.002751480317     1.007825032230

  Charge       = 0
  Multiplicity = 1
  Basis Set: AUG-CC-PV(Q+D)Z
    Blend: AUG-CC-PV(Q+D)Z
  Basis Set: (AUG-CC-PV(Q+D)Z AUX)
    Blend: AUG-CC-PVQZ-JKFIT

    Orbital Energies [Eh]
    ---------------------

    Doubly Occupied:

       1A    -14.386131     2A     -0.982163     3A     -0.573189
       4A     -0.572032     5A     -0.377798

  @DF-RKS Final Energy:   -56.56640422317194

   => Energetics <=

    Nuclear Repulsion Energy =             11.9455307466493679
    One-Electron Energy =                 -99.6449804528652550
    Two-Electron Energy =                  36.5581976615425219
    DFT Exchange-Correlation Energy =      -5.4669945535918387
    Empirical Dispersion Energy =           0.0000000000000000
    VV10 Nonlocal Energy =                  0.0418423750932608
    Total Energy =                        -56.5664042231719435

  Dipole Moment: [D]
     X:     0.9819      Y:     1.1800      Z:     0.0024     Total:     1.5351

  Vibration                       7                   8                   9
  Freq [cm^-1]                1028.2809           1456.3174           1669.5469
  Irrep                           Ap                 App                  Ap
  Reduced mass [u]              1.1815              1.0594              1.0667
  Force const [mDyne/A]         0.7360              1.3238              1.7519

  Vibration                       10                  11                  12
  Freq [cm^-1]                3508.9027           3570.3623           3630.5474
  Irrep                           Ap                 App                  Ap
  Reduced mass [u]              1.0261              1.0981              1.0903
  Force const [mDyne/A]         7.4435              8.2471              8.4674

  ==> Thermochemistry Components <==

  Entropy, S
    Electronic S            0.000 [cal/(mol K)]        0.000 [J/(mol K)]       0.00000000 [mEh/K] (multiplicity = 1)
    Translational S        34.441 [cal/(mol K)]      144.100 [J/(mol K)]       0.05488488 [mEh/K] (mol. weight = 17.0265 [u], P = 101325.00 [Pa])
    Rotational S           13.615 [cal/(mol K)]       56.967 [J/(mol K)]       0.02169756 [mEh/K] (symmetry no. = 1)
    Vibrational S           0.103 [cal/(mol K)]        0.432 [J/(mol K)]       0.00016465 [mEh/K]
  Total S                  48.160 [cal/(mol K)]      201.499 [J/(mol K)]       0.07674709 [mEh/K]
  Correction S              0.000 [cal/(mol K)]        0.000 [J/(mol K)]       0.00000000 [mEh/K]

  Constant volume heat capacity, Cv
    Electronic Cv           0.000 [cal/(mol K)]        0.000 [J/(mol K)]       0.00000000 [mEh/K]
    Translational Cv        2.981 [cal/(mol K)]       12.472 [J/(mol K)]       0.00475022 [mEh/K]
    Rotational Cv           2.981 [cal/(mol K)]       12.472 [J/(mol K)]       0.00475022 [mEh/K]
    Vibrational Cv          0.475 [cal/(mol K)]        1.989 [J/(mol K)]       0.00075764 [mEh/K]
  Total Cv                  6.437 [cal/(mol K)]       26.933 [J/(mol K)]       0.01025808 [mEh/K]
  Correction Cv             0.000 [cal/(mol K)]        0.000 [J/(mol K)]       0.00000000 [mEh/K]

  Constant pressure heat capacity, Cp
    Electronic Cp           0.000 [cal/(mol K)]        0.000 [J/(mol K)]       0.00000000 [mEh/K]
    Translational Cp        4.968 [cal/(mol K)]       20.786 [J/(mol K)]       0.00791703 [mEh/K]
    Rotational Cp           2.981 [cal/(mol K)]       12.472 [J/(mol K)]       0.00475022 [mEh/K]
    Vibrational Cp          0.475 [cal/(mol K)]        1.989 [J/(mol K)]       0.00075764 [mEh/K]
  Total Cp                  8.424 [cal/(mol K)]       35.247 [J/(mol K)]       0.01342489 [mEh/K]
  Correction Cp             0.000 [cal/(mol K)]        0.000 [J/(mol K)]       0.00000000 [mEh/K]

  ==> Thermochemistry Energy Analysis <==

  Raw electronic energy, E0
  Total E0, Electronic energy at well bottom at 0 [K]                  -56.56640640 [Eh]

  Zero-point energy, ZPE_vib = Sum_i nu_i / 2
    Electronic ZPE          0.000 [kcal/mol]        0.000 [kJ/mol]       0.00000000 [Eh]
    Translational ZPE       0.000 [kcal/mol]        0.000 [kJ/mol]       0.00000000 [Eh]
    Rotational ZPE          0.000 [kcal/mol]        0.000 [kJ/mol]       0.00000000 [Eh]
    Vibrational ZPE        21.249 [kcal/mol]       88.906 [kJ/mol]       0.03386259 [Eh]        7431.979 [cm^-1]
  Correction ZPE           21.249 [kcal/mol]       88.906 [kJ/mol]       0.03386259 [Eh]        7431.979 [cm^-1]
  Total ZPE, Electronic energy at 0 [K]                                -56.53254381 [Eh]

  Thermal Energy, E (includes ZPE)
    Electronic E            0.000 [kcal/mol]        0.000 [kJ/mol]       0.00000000 [Eh]
    Translational E         0.889 [kcal/mol]        3.718 [kJ/mol]       0.00141628 [Eh]
    Rotational E            0.889 [kcal/mol]        3.718 [kJ/mol]       0.00141628 [Eh]
    Vibrational E          21.275 [kcal/mol]       89.015 [kJ/mol]       0.03390391 [Eh]
  Correction E             23.052 [kcal/mol]       96.452 [kJ/mol]       0.03673646 [Eh]
  Total E, Electronic energy at  298.15 [K]                            -56.52966993 [Eh]

  Enthalpy, H_trans = E_trans + k_B * T
    Electronic H            0.000 [kcal/mol]        0.000 [kJ/mol]       0.00000000 [Eh]
    Translational H         1.481 [kcal/mol]        6.197 [kJ/mol]       0.00236046 [Eh]
    Rotational H            0.889 [kcal/mol]        3.718 [kJ/mol]       0.00141628 [Eh]
    Vibrational H          21.275 [kcal/mol]       89.015 [kJ/mol]       0.03390391 [Eh]
  Correction H             23.645 [kcal/mol]       98.931 [kJ/mol]       0.03768065 [Eh]
  Total H, Enthalpy at  298.15 [K]                                     -56.52872575 [Eh]

  Gibbs free energy, G = H - T * S
    Electronic G            0.000 [kcal/mol]        0.000 [kJ/mol]       0.00000000 [Eh]
    Translational G        -8.787 [kcal/mol]      -36.766 [kJ/mol]      -0.01400347 [Eh]
    Rotational G           -3.171 [kcal/mol]      -13.266 [kJ/mol]      -0.00505285 [Eh]
    Vibrational G          21.244 [kcal/mol]       88.886 [kJ/mol]       0.03385482 [Eh]
  Correction G              9.286 [kcal/mol]       38.853 [kJ/mol]       0.01479850 [Eh]
  Total G, Free enthalpy at  298.15 [K]                                -56.55160789 [Eh]

*** Psi4 exiting successfully. Buy a developer a beer!
