                               Psi4 1.3.2 release

  ==> Input File <==

--------------------------------------------------------------------------
memory 144 GB

molecule {
0 1
N 0.0000000000 0.0000000000 0.0000000000
N 0.0000000000 0.0000000000 1.1291000000
O 0.0000000000 -0.0000000000 2.3161000000
}

set dynamic_level 1
set basis aug-cc-pV(Q+d)Z

optimize("wB97X-V")
frequencies("wB97X-V")
--------------------------------------------------------------------------

    Molecular point group: c2v
  Charge       = 0
  Multiplicity = 1
  Basis Set: AUG-CC-PV(Q+D)Z
    Blend: AUG-CC-PV(Q+D)Z
  Basis Set: (AUG-CC-PV(Q+D)Z AUX)
    Blend: AUG-CC-PVQZ-JKFIT
  @DF-RKS Final Energy:  -184.68539341869109
    Total Energy =                       -184.6853934186910919
    Molecular point group: c2v
  Basis Set: AUG-CC-PV(Q+D)Z
    Blend: AUG-CC-PV(Q+D)Z
  Basis Set: (AUG-CC-PV(Q+D)Z AUX)
    Blend: AUG-CC-PVQZ-JKFIT
  @DF-RKS Final Energy:  -184.68533743983099
    Total Energy =                       -184.6853374398309882
  Basis Set: AUG-CC-PV(Q+D)Z
    Blend: AUG-CC-PV(Q+D)Z
  Basis Set: (AUG-CC-PV(Q+D)Z AUX)
    Blend: AUG-CC-PVQZ-JKFIT
  @DF-RKS Final Energy:  -184.68544619970965
    Total Energy =                       -184.6854461997096450
  Basis Set: AUG-CC-PV(Q+D)Z
    Blend: AUG-CC-PV(Q+D)Z
  Basis Set: (AUG-CC-PV(Q+D)Z AUX)
    Blend: AUG-CC-PVQZ-JKFIT
  @DF-RKS Final Energy:  -184.68540363815626
    Total Energy =                       -184.6854036381562310
  @DF-RKS Final Energy:  -184.68537980116724
    Total Energy =                       -184.6853798011672438
  @DF-RKS Final Energy:  -184.68588314756499
    Total Energy =                       -184.6858831475649936
  @DF-RKS Final Energy:  -184.68587489571314
    Total Energy =                       -184.6858748957131127
  @DF-RKS Final Energy:  -184.68588789199271
    Total Energy =                       -184.6858878919927065
  @DF-RKS Final Energy:  -184.68588299432184
    Total Energy =                       -184.6858829943218439
  @DF-RKS Final Energy:  -184.68587965391382
    Total Energy =                       -184.6858796539137870
  @DF-RKS Final Energy:  -184.68588969421594
    Total Energy =                       -184.6858896942159447
  @DF-RKS Final Energy:  -184.68588820431748
    Total Energy =                       -184.6858882043174788
  @DF-RKS Final Energy:  -184.68588763175379
    Total Energy =                       -184.6858876317537863
  @DF-RKS Final Energy:  -184.68588783106355
    Total Energy =                       -184.6858878310635248
  @DF-RKS Final Energy:  -184.68588789085985
    Total Energy =                       -184.6858878908598740
  **** Optimization is complete! (in 3 steps) ****
    Final optimized geometry and variables:
  @DF-RKS Final Energy:  -184.68588968956016
    Total Energy =                       -184.6858896895601276
  @DF-RKS Final Energy:  -184.68588819849850
    Total Energy =                       -184.6858881984985032
  @DF-RKS Final Energy:  -184.68588762152990
    Total Energy =                       -184.6858876215299006
  @DF-RKS Final Energy:  -184.68588783487448
    Total Energy =                       -184.6858878348745066
  @DF-RKS Final Energy:  -184.68588789637684
    Total Energy =                       -184.6858878963768404
  @DF-RKS Final Energy:  -184.68588968956047
    Total Energy =                       -184.6858896895604687
  @DF-RKS Final Energy:  -184.68588819849879
    Total Energy =                       -184.6858881984988159
  @DF-RKS Final Energy:  -184.68588762152976
    Total Energy =                       -184.6858876215297585
  @DF-RKS Final Energy:  -184.68588783487465
    Total Energy =                       -184.6858878348746202
  @DF-RKS Final Energy:  -184.68588789637704
    Total Energy =                       -184.6858878963770394
  Basis Set: AUG-CC-PV(Q+D)Z
    Blend: AUG-CC-PV(Q+D)Z
  Basis Set: (AUG-CC-PV(Q+D)Z AUX)
    Blend: AUG-CC-PVQZ-JKFIT
  @DF-RKS Final Energy:  -184.68588769532437
    Total Energy =                       -184.6858876953243396
  Basis Set: AUG-CC-PV(Q+D)Z
    Blend: AUG-CC-PV(Q+D)Z
  Basis Set: (AUG-CC-PV(Q+D)Z AUX)
    Blend: AUG-CC-PVQZ-JKFIT
  @DF-RKS Final Energy:  -184.68588818841960
    Total Energy =                       -184.6858881884195682
  Multiplicity = 1
  Basis Set: AUG-CC-PV(Q+D)Z
    Blend: AUG-CC-PV(Q+D)Z
  Basis Set: (AUG-CC-PV(Q+D)Z AUX)
    Blend: AUG-CC-PVQZ-JKFIT
  @DF-RKS Final Energy:  -184.68588951289030
    Total Energy =                       -184.6858895128902986
    Molecular point group: cs

    Geometry (in Angstrom), charge = 0, multiplicity = 1:

       Center              X                  Y                   Z               Mass
    ------------   -----------------  -----------------  -----------------  -----------------
         N            0.000000000000    -0.000299771036    -1.189905487469    14.003074004430
         N            0.000000000000     0.000582976192    -0.074227594461    14.003074004430
         O            0.000000000000    -0.000247937725     1.106711071534    15.994914619570

  Charge       = 0
  Multiplicity = 1
  Basis Set: AUG-CC-PV(Q+D)Z
    Blend: AUG-CC-PV(Q+D)Z
  Basis Set: (AUG-CC-PV(Q+D)Z AUX)
    Blend: AUG-CC-PVQZ-JKFIT

    Orbital Energies [Eh]
    ---------------------

    Doubly Occupied:

       1Ap   -19.309024     2Ap   -14.645400     3Ap   -14.508798
       4Ap    -1.385691     5Ap    -1.225728     6Ap    -0.723300
       1App   -0.692562     7Ap    -0.692562     8Ap    -0.597970
       2App   -0.448621     9Ap    -0.448621

  @DF-RKS Final Energy:  -184.68588950584925

   => Energetics <=

    Nuclear Repulsion Energy =             61.2380073772689144
    One-Electron Energy =                -371.8210734894277607
    Two-Electron Energy =                 141.6733590863511836
    DFT Exchange-Correlation Energy =     -15.8674090319689096
    Empirical Dispersion Energy =           0.0000000000000000
    VV10 Nonlocal Energy =                  0.0912265519273632
    Total Energy =                       -184.6858895058492180

  Dipole Moment: [D]
     X:     0.0000      Y:     0.0010      Z:    -0.1756     Total:     0.1756

  Vibration                       6                   7                   8
  Freq [cm^-1]                 611.1262            623.1852           1358.9401
  Irrep                           B1                  B2                  A1
  Reduced mass [u]             14.2524             14.2524             15.1258
  Force const [mDyne/A]         3.1362              3.2612             16.4577

  Vibration                       9
  Freq [cm^-1]                2402.2754
  Irrep                           A1
  Reduced mass [u]             14.0739
  Force const [mDyne/A]        47.8533

  ==> Thermochemistry Components <==

  Entropy, S
    Electronic S            0.000 [cal/(mol K)]        0.000 [J/(mol K)]       0.00000000 [mEh/K] (multiplicity = 1)
    Translational S        37.271 [cal/(mol K)]      155.941 [J/(mol K)]       0.05939493 [mEh/K] (mol. weight = 44.0011 [u], P = 101325.00 [Pa])
    Rotational S           14.278 [cal/(mol K)]       59.741 [J/(mol K)]       0.02275404 [mEh/K] (symmetry no. = 1)
    Vibrational S           0.864 [cal/(mol K)]        3.615 [J/(mol K)]       0.00137678 [mEh/K]
  Total S                  52.413 [cal/(mol K)]      219.297 [J/(mol K)]       0.08352575 [mEh/K]
  Correction S              0.000 [cal/(mol K)]        0.000 [J/(mol K)]       0.00000000 [mEh/K]

  Constant volume heat capacity, Cv
    Electronic Cv           0.000 [cal/(mol K)]        0.000 [J/(mol K)]       0.00000000 [mEh/K]
    Translational Cv        2.981 [cal/(mol K)]       12.472 [J/(mol K)]       0.00475022 [mEh/K]
    Rotational Cv           1.987 [cal/(mol K)]        8.314 [J/(mol K)]       0.00316681 [mEh/K]
    Vibrational Cv          2.115 [cal/(mol K)]        8.851 [J/(mol K)]       0.00337110 [mEh/K]
  Total Cv                  7.083 [cal/(mol K)]       29.637 [J/(mol K)]       0.01128812 [mEh/K]
  Correction Cv             0.000 [cal/(mol K)]        0.000 [J/(mol K)]       0.00000000 [mEh/K]

  Constant pressure heat capacity, Cp
    Electronic Cp           0.000 [cal/(mol K)]        0.000 [J/(mol K)]       0.00000000 [mEh/K]
    Translational Cp        4.968 [cal/(mol K)]       20.786 [J/(mol K)]       0.00791703 [mEh/K]
    Rotational Cp           1.987 [cal/(mol K)]        8.314 [J/(mol K)]       0.00316681 [mEh/K]
    Vibrational Cp          2.115 [cal/(mol K)]        8.851 [J/(mol K)]       0.00337110 [mEh/K]
  Total Cp                  9.071 [cal/(mol K)]       37.951 [J/(mol K)]       0.01445493 [mEh/K]
  Correction Cp             0.000 [cal/(mol K)]        0.000 [J/(mol K)]       0.00000000 [mEh/K]

  ==> Thermochemistry Energy Analysis <==

  Raw electronic energy, E0
  Total E0, Electronic energy at well bottom at 0 [K]                 -184.68588969 [Eh]

  Zero-point energy, ZPE_vib = Sum_i nu_i / 2
    Electronic ZPE          0.000 [kcal/mol]        0.000 [kJ/mol]       0.00000000 [Eh]
    Translational ZPE       0.000 [kcal/mol]        0.000 [kJ/mol]       0.00000000 [Eh]
    Rotational ZPE          0.000 [kcal/mol]        0.000 [kJ/mol]       0.00000000 [Eh]
    Vibrational ZPE         7.141 [kcal/mol]       29.880 [kJ/mol]       0.01138065 [Eh]        2497.763 [cm^-1]
  Correction ZPE            7.141 [kcal/mol]       29.880 [kJ/mol]       0.01138065 [Eh]        2497.763 [cm^-1]
  Total ZPE, Electronic energy at 0 [K]                               -184.67450904 [Eh]

  Thermal Energy, E (includes ZPE)
    Electronic E            0.000 [kcal/mol]        0.000 [kJ/mol]       0.00000000 [Eh]
    Translational E         0.889 [kcal/mol]        3.718 [kJ/mol]       0.00141628 [Eh]
    Rotational E            0.592 [kcal/mol]        2.479 [kJ/mol]       0.00094418 [Eh]
    Vibrational E           7.336 [kcal/mol]       30.695 [kJ/mol]       0.01169112 [Eh]
  Correction E              8.817 [kcal/mol]       36.892 [kJ/mol]       0.01405158 [Eh]
  Total E, Electronic energy at  298.15 [K]                           -184.67183811 [Eh]

  Enthalpy, H_trans = E_trans + k_B * T
    Electronic H            0.000 [kcal/mol]        0.000 [kJ/mol]       0.00000000 [Eh]
    Translational H         1.481 [kcal/mol]        6.197 [kJ/mol]       0.00236046 [Eh]
    Rotational H            0.592 [kcal/mol]        2.479 [kJ/mol]       0.00094418 [Eh]
    Vibrational H           7.336 [kcal/mol]       30.695 [kJ/mol]       0.01169112 [Eh]
  Correction H              9.410 [kcal/mol]       39.371 [kJ/mol]       0.01499577 [Eh]
  Total H, Enthalpy at  298.15 [K]                                    -184.67089392 [Eh]

  Gibbs free energy, G = H - T * S
    Electronic G            0.000 [kcal/mol]        0.000 [kJ/mol]       0.00000000 [Eh]
    Translational G        -9.631 [kcal/mol]      -40.297 [kJ/mol]      -0.01534814 [Eh]
    Rotational G           -3.665 [kcal/mol]      -15.333 [kJ/mol]      -0.00583993 [Eh]
    Vibrational G           7.079 [kcal/mol]       29.617 [kJ/mol]       0.01128063 [Eh]
  Correction G             -6.217 [kcal/mol]      -26.012 [kJ/mol]      -0.00990744 [Eh]
  Total G, Free enthalpy at  298.15 [K]                               -184.69579713 [Eh]

*** Psi4 exiting successfully. Buy a developer a beer!
