                               Psi4 1.3.2 release

  ==> Input File <==

--------------------------------------------------------------------------
memory 144 GB

molecule {
0 1
O 0.0000000000 0.0000000000 0.0000000000
C 0.0000000000 0.0000000000 1.1584320400
S 0.0000000000 0.0000000000 2.7252829900
}

set dynamic_level 1
set basis aug-cc-pV(Q+d)Z

optimize("wB97X-V")
frequencies("wB97X-V")
--------------------------------------------------------------------------

    Molecular point group: c2v
  Charge       = 0
  Multiplicity = 1
  Basis Set: AUG-CC-PV(Q+D)Z
    Blend: AUG-CC-PV(Q+D)Z
  Basis Set: (AUG-CC-PV(Q+D)Z AUX)
    Blend: AUG-CC-PVQZ-JKFIT
  @DF-RKS Final Energy:  -511.51141003222972
    Total Energy =                       -511.5114100322297190
    Molecular point group: c2v
  Basis Set: AUG-CC-PV(Q+D)Z
    Blend: AUG-CC-PV(Q+D)Z
  Basis Set: (AUG-CC-PV(Q+D)Z AUX)
    Blend: AUG-CC-PVQZ-JKFIT
  @DF-RKS Final Energy:  -511.51138640801429
    Total Energy =                       -511.5113864080142321
  Basis Set: AUG-CC-PV(Q+D)Z
    Blend: AUG-CC-PV(Q+D)Z
  Basis Set: (AUG-CC-PV(Q+D)Z AUX)
    Blend: AUG-CC-PVQZ-JKFIT
  @DF-RKS Final Energy:  -511.51143140927115
    Total Energy =                       -511.5114314092711538
  Basis Set: AUG-CC-PV(Q+D)Z
    Blend: AUG-CC-PV(Q+D)Z
  Basis Set: (AUG-CC-PV(Q+D)Z AUX)
    Blend: AUG-CC-PVQZ-JKFIT
  @DF-RKS Final Energy:  -511.51141461361209
    Total Energy =                       -511.5114146136120894
  @DF-RKS Final Energy:  -511.51140283124090
    Total Energy =                       -511.5114028312409005
  @DF-RKS Final Energy:  -511.51156526676039
    Total Energy =                       -511.5115652667603854
  @DF-RKS Final Energy:  -511.51156192960116
    Total Energy =                       -511.5115619296011573
  @DF-RKS Final Energy:  -511.51156625641363
    Total Energy =                       -511.5115662564136301
  @DF-RKS Final Energy:  -511.51156519203283
    Total Energy =                       -511.5115651920328332
  @DF-RKS Final Energy:  -511.51156257630163
    Total Energy =                       -511.5115625763016283
  @DF-RKS Final Energy:  -511.51156629293450
    Total Energy =                       -511.5115662929345035
  @DF-RKS Final Energy:  -511.51156505229471
    Total Energy =                       -511.5115650522947703
  @DF-RKS Final Energy:  -511.51156519430452
    Total Energy =                       -511.5115651943045805
  @DF-RKS Final Energy:  -511.51156510771551
    Total Energy =                       -511.5115651077154553
  @DF-RKS Final Energy:  -511.51156470950235
    Total Energy =                       -511.5115647095023519
  **** Optimization is complete! (in 3 steps) ****
    Final optimized geometry and variables:
  @DF-RKS Final Energy:  -511.51156629293536
    Total Energy =                       -511.5115662929354130
  @DF-RKS Final Energy:  -511.51156505322581
    Total Energy =                       -511.5115650532258087
  @DF-RKS Final Energy:  -511.51156518928849
    Total Energy =                       -511.5115651892884330
  @DF-RKS Final Energy:  -511.51156510752020
    Total Energy =                       -511.5115651075201981
  @DF-RKS Final Energy:  -511.51156470178694
    Total Energy =                       -511.5115647017869378
  @DF-RKS Final Energy:  -511.51156629293615
    Total Energy =                       -511.5115662929362657
  @DF-RKS Final Energy:  -511.51156505322564
    Total Energy =                       -511.5115650532256382
  @DF-RKS Final Energy:  -511.51156518928968
    Total Energy =                       -511.5115651892896835
  @DF-RKS Final Energy:  -511.51156510752099
    Total Energy =                       -511.5115651075209939
  @DF-RKS Final Energy:  -511.51156470178734
    Total Energy =                       -511.5115647017873926
  Basis Set: AUG-CC-PV(Q+D)Z
    Blend: AUG-CC-PV(Q+D)Z
  Basis Set: (AUG-CC-PV(Q+D)Z AUX)
    Blend: AUG-CC-PVQZ-JKFIT
  @DF-RKS Final Energy:  -511.51156538519655
    Total Energy =                       -511.5115653851965476
  Basis Set: AUG-CC-PV(Q+D)Z
    Blend: AUG-CC-PV(Q+D)Z
  Basis Set: (AUG-CC-PV(Q+D)Z AUX)
    Blend: AUG-CC-PVQZ-JKFIT
  @DF-RKS Final Energy:  -511.51156564820349
    Total Energy =                       -511.5115656482034865
  Multiplicity = 1
  Basis Set: AUG-CC-PV(Q+D)Z
    Blend: AUG-CC-PV(Q+D)Z
  Basis Set: (AUG-CC-PV(Q+D)Z AUX)
    Blend: AUG-CC-PVQZ-JKFIT
  @DF-RKS Final Energy:  -511.51156615823663
    Total Energy =                       -511.5115661582366329
    Molecular point group: cs

    Geometry (in Angstrom), charge = 0, multiplicity = 1:

       Center              X                  Y                   Z               Mass
    ------------   -----------------  -----------------  -----------------  -----------------
         O            0.000000000000    -0.000287357698    -1.675795129377    15.994914619570
         C            0.000000000000     0.000665817058    -0.524356375092    12.000000000000
         S            0.000000000000    -0.000106140851     1.035168361000    31.972071174400

  Charge       = 0
  Multiplicity = 1
  Basis Set: AUG-CC-PV(Q+D)Z
    Blend: AUG-CC-PV(Q+D)Z
  Basis Set: (AUG-CC-PV(Q+D)Z AUX)
    Blend: AUG-CC-PVQZ-JKFIT

    Orbital Energies [Eh]
    ---------------------

    Doubly Occupied:

       1Ap   -88.921838     2Ap   -19.301153     3Ap   -10.441013
       4Ap    -8.079148     5Ap    -6.036335     1App   -6.029916
       6Ap    -6.029916     7Ap    -1.281300     8Ap    -0.955452
       9Ap    -0.672375     2App   -0.600983    10Ap    -0.600983
      11Ap    -0.582108     3App   -0.402390    12Ap    -0.402390

  @DF-RKS Final Energy:  -511.51156615616804

   => Energetics <=

    Nuclear Repulsion Energy =             79.6199265523052873
    One-Electron Energy =                -861.7214492992228543
    Two-Electron Energy =                 299.7470362142980207
    DFT Exchange-Correlation Energy =     -29.2815884182405100
    Empirical Dispersion Energy =           0.0000000000000000
    VV10 Nonlocal Energy =                  0.1245087946920003
    Total Energy =                       -511.5115661561680440

  Dipole Moment: [D]
     X:     0.0000      Y:     0.0007      Z:     0.6515     Total:     0.6515

  Vibration                       6                   7                   8
  Freq [cm^-1]                 533.6202            537.7020            898.1199
  Irrep                           B1                  B2                  A1
  Reduced mass [u]             13.0330             13.0330             19.6114
  Force const [mDyne/A]         2.1865              2.2201              9.3202

  Vibration                       9
  Freq [cm^-1]                2145.9396
  Irrep                           A1
  Reduced mass [u]             13.1385
  Force const [mDyne/A]        35.6477

  ==> Thermochemistry Components <==

  Entropy, S
    Electronic S            0.000 [cal/(mol K)]        0.000 [J/(mol K)]       0.00000000 [mEh/K] (multiplicity = 1)
    Translational S        38.194 [cal/(mol K)]      159.802 [J/(mol K)]       0.06086550 [mEh/K] (mol. weight = 59.9670 [u], P = 101325.00 [Pa])
    Rotational S           15.742 [cal/(mol K)]       65.863 [J/(mol K)]       0.02508599 [mEh/K] (symmetry no. = 1)
    Vibrational S           1.291 [cal/(mol K)]        5.401 [J/(mol K)]       0.00205706 [mEh/K]
  Total S                  55.226 [cal/(mol K)]      231.066 [J/(mol K)]       0.08800856 [mEh/K]
  Correction S              0.000 [cal/(mol K)]        0.000 [J/(mol K)]       0.00000000 [mEh/K]

  Constant volume heat capacity, Cv
    Electronic Cv           0.000 [cal/(mol K)]        0.000 [J/(mol K)]       0.00000000 [mEh/K]
    Translational Cv        2.981 [cal/(mol K)]       12.472 [J/(mol K)]       0.00475022 [mEh/K]
    Rotational Cv           1.987 [cal/(mol K)]        8.314 [J/(mol K)]       0.00316681 [mEh/K]
    Vibrational Cv          2.852 [cal/(mol K)]       11.932 [J/(mol K)]       0.00454449 [mEh/K]
  Total Cv                  7.820 [cal/(mol K)]       32.718 [J/(mol K)]       0.01246151 [mEh/K]
  Correction Cv             0.000 [cal/(mol K)]        0.000 [J/(mol K)]       0.00000000 [mEh/K]

  Constant pressure heat capacity, Cp
    Electronic Cp           0.000 [cal/(mol K)]        0.000 [J/(mol K)]       0.00000000 [mEh/K]
    Translational Cp        4.968 [cal/(mol K)]       20.786 [J/(mol K)]       0.00791703 [mEh/K]
    Rotational Cp           1.987 [cal/(mol K)]        8.314 [J/(mol K)]       0.00316681 [mEh/K]
    Vibrational Cp          2.852 [cal/(mol K)]       11.932 [J/(mol K)]       0.00454449 [mEh/K]
  Total Cp                  9.807 [cal/(mol K)]       41.032 [J/(mol K)]       0.01562832 [mEh/K]
  Correction Cp             0.000 [cal/(mol K)]        0.000 [J/(mol K)]       0.00000000 [mEh/K]

  ==> Thermochemistry Energy Analysis <==

  Raw electronic energy, E0
  Total E0, Electronic energy at well bottom at 0 [K]                 -511.51156629 [Eh]

  Zero-point energy, ZPE_vib = Sum_i nu_i / 2
    Electronic ZPE          0.000 [kcal/mol]        0.000 [kJ/mol]       0.00000000 [Eh]
    Translational ZPE       0.000 [kcal/mol]        0.000 [kJ/mol]       0.00000000 [Eh]
    Rotational ZPE          0.000 [kcal/mol]        0.000 [kJ/mol]       0.00000000 [Eh]
    Vibrational ZPE         5.883 [kcal/mol]       24.615 [kJ/mol]       0.00937553 [Eh]        2057.691 [cm^-1]
  Correction ZPE            5.883 [kcal/mol]       24.615 [kJ/mol]       0.00937553 [Eh]        2057.691 [cm^-1]
  Total ZPE, Electronic energy at 0 [K]                               -511.50219076 [Eh]

  Thermal Energy, E (includes ZPE)
    Electronic E            0.000 [kcal/mol]        0.000 [kJ/mol]       0.00000000 [Eh]
    Translational E         0.889 [kcal/mol]        3.718 [kJ/mol]       0.00141628 [Eh]
    Rotational E            0.592 [kcal/mol]        2.479 [kJ/mol]       0.00094418 [Eh]
    Vibrational E           6.167 [kcal/mol]       25.804 [kJ/mol]       0.00982830 [Eh]
  Correction E              7.649 [kcal/mol]       32.002 [kJ/mol]       0.01218876 [Eh]
  Total E, Electronic energy at  298.15 [K]                           -511.49937753 [Eh]

  Enthalpy, H_trans = E_trans + k_B * T
    Electronic H            0.000 [kcal/mol]        0.000 [kJ/mol]       0.00000000 [Eh]
    Translational H         1.481 [kcal/mol]        6.197 [kJ/mol]       0.00236046 [Eh]
    Rotational H            0.592 [kcal/mol]        2.479 [kJ/mol]       0.00094418 [Eh]
    Vibrational H           6.167 [kcal/mol]       25.804 [kJ/mol]       0.00982830 [Eh]
  Correction H              8.241 [kcal/mol]       34.481 [kJ/mol]       0.01313295 [Eh]
  Total H, Enthalpy at  298.15 [K]                                    -511.49843335 [Eh]

  Gibbs free energy, G = H - T * S
    Electronic G            0.000 [kcal/mol]        0.000 [kJ/mol]       0.00000000 [Eh]
    Translational G        -9.906 [kcal/mol]      -41.448 [kJ/mol]      -0.01578659 [Eh]
    Rotational G           -4.101 [kcal/mol]      -17.158 [kJ/mol]      -0.00653520 [Eh]
    Vibrational G           5.782 [kcal/mol]       24.194 [kJ/mol]       0.00921499 [Eh]
  Correction G             -8.225 [kcal/mol]      -34.412 [kJ/mol]      -0.01310681 [Eh]
  Total G, Free enthalpy at  298.15 [K]                               -511.52467310 [Eh]

*** Psi4 exiting successfully. Buy a developer a beer!
