                               Psi4 1.3.2 release

  ==> Input File <==

--------------------------------------------------------------------------
memory 144 GB

molecule {
0 1
P 0.0000000000 0.0000000000 -0.0679917919
H 1.1903431933 0.0000000000 0.6964572780
H -0.5951715967 -1.0308674445 0.6964572780
H -0.5951715967 1.0308674445 0.6964572780
}

set dynamic_level 1
set basis aug-cc-pV(Q+d)Z

optimize("wB97X-V")
frequencies("wB97X-V")
--------------------------------------------------------------------------

    Molecular point group: cs
  Charge       = 0
  Multiplicity = 1
  Basis Set: AUG-CC-PV(Q+D)Z
    Blend: AUG-CC-PV(Q+D)Z
  Basis Set: (AUG-CC-PV(Q+D)Z AUX)
    Blend: AUG-CC-PVQZ-JKFIT
  @DF-RKS Final Energy:  -343.10485131478100
    Total Energy =                       -343.1048513147810013
    Molecular point group: cs
  Basis Set: AUG-CC-PV(Q+D)Z
    Blend: AUG-CC-PV(Q+D)Z
  Basis Set: (AUG-CC-PV(Q+D)Z AUX)
    Blend: AUG-CC-PVQZ-JKFIT
  @DF-RKS Final Energy:  -343.10484909888578
    Total Energy =                       -343.1048490988857793
  Basis Set: AUG-CC-PV(Q+D)Z
    Blend: AUG-CC-PV(Q+D)Z
  Basis Set: (AUG-CC-PV(Q+D)Z AUX)
    Blend: AUG-CC-PVQZ-JKFIT
  @DF-RKS Final Energy:  -343.10484940499236
    Total Energy =                       -343.1048494049923647
  Basis Set: AUG-CC-PV(Q+D)Z
    Blend: AUG-CC-PV(Q+D)Z
  Basis Set: (AUG-CC-PV(Q+D)Z AUX)
    Blend: AUG-CC-PVQZ-JKFIT
  @DF-RKS Final Energy:  -343.10485293006957
    Total Energy =                       -343.1048529300695122
  @DF-RKS Final Energy:  -343.10484742955845
    Total Energy =                       -343.1048474295585038
  @DF-RKS Final Energy:  -343.10484850301043
    Total Energy =                       -343.1048485030104302
  @DF-RKS Final Energy:  -343.10485051452838
    Total Energy =                       -343.1048505145283229
  @DF-RKS Final Energy:  -343.10484851917391
    Total Energy =                       -343.1048485191739701
  @DF-RKS Final Energy:  -343.10485049893106
    Total Energy =                       -343.1048504989311141
  @DF-RKS Final Energy:  -343.10485602852810
    Total Energy =                       -343.1048560285281042
  @DF-RKS Final Energy:  -343.10485397145658
    Total Energy =                       -343.1048539714565777
  @DF-RKS Final Energy:  -343.10485396921450
    Total Energy =                       -343.1048539692145027
  @DF-RKS Final Energy:  -343.10485554217087
    Total Energy =                       -343.1048555421708102
  @DF-RKS Final Energy:  -343.10485426325010
    Total Energy =                       -343.1048542632501039
  @DF-RKS Final Energy:  -343.10485448309390
    Total Energy =                       -343.1048544830939022
  @DF-RKS Final Energy:  -343.10485396460314
    Total Energy =                       -343.1048539646031941
  @DF-RKS Final Energy:  -343.10485448382951
    Total Energy =                       -343.1048544838295129
  @DF-RKS Final Energy:  -343.10485395572005
    Total Energy =                       -343.1048539557200456
  **** Optimization is complete! (in 2 steps) ****
    Final optimized geometry and variables:
  @DF-RKS Final Energy:  -343.10485602966207
    Total Energy =                       -343.1048560296620167
  @DF-RKS Final Energy:  -343.10485397001599
    Total Energy =                       -343.1048539700159949
  @DF-RKS Final Energy:  -343.10485448283760
    Total Energy =                       -343.1048544828376521
  @DF-RKS Final Energy:  -343.10485396589655
    Total Energy =                       -343.1048539658965524
  @DF-RKS Final Energy:  -343.10485448161614
    Total Energy =                       -343.1048544816161439
  @DF-RKS Final Energy:  -343.10485395625182
    Total Energy =                       -343.1048539562518158
  @DF-RKS Final Energy:  -343.10485220561833
    Total Energy =                       -343.1048522056183856
  @DF-RKS Final Energy:  -343.10485347061740
    Total Energy =                       -343.1048534706173427
  @DF-RKS Final Energy:  -343.10485041909669
    Total Energy =                       -343.1048504190966923
  @DF-RKS Final Energy:  -343.10485088884417
    Total Energy =                       -343.1048508888442257
  @DF-RKS Final Energy:  -343.10485072694564
    Total Energy =                       -343.1048507269456422
  @DF-RKS Final Energy:  -343.10485250384795
    Total Energy =                       -343.1048525038479511
  @DF-RKS Final Energy:  -343.10485339793553
    Total Energy =                       -343.1048533979355284
  @DF-RKS Final Energy:  -343.10485392479882
    Total Energy =                       -343.1048539247988742
  @DF-RKS Final Energy:  -343.10485071521197
    Total Energy =                       -343.1048507152119669
  @DF-RKS Final Energy:  -343.10485250433493
    Total Energy =                       -343.1048525043349287
  @DF-RKS Final Energy:  -343.10485109962104
    Total Energy =                       -343.1048510996210439
  @DF-RKS Final Energy:  -343.10485213464403
    Total Energy =                       -343.1048521346440339
  Basis Set: AUG-CC-PV(Q+D)Z
    Blend: AUG-CC-PV(Q+D)Z
  Basis Set: (AUG-CC-PV(Q+D)Z AUX)
    Blend: AUG-CC-PVQZ-JKFIT
  @DF-RKS Final Energy:  -343.10485396031629
    Total Energy =                       -343.1048539603162340
  Basis Set: AUG-CC-PV(Q+D)Z
    Blend: AUG-CC-PV(Q+D)Z
  Basis Set: (AUG-CC-PV(Q+D)Z AUX)
    Blend: AUG-CC-PVQZ-JKFIT
  @DF-RKS Final Energy:  -343.10485423976604
    Total Energy =                       -343.1048542397660412
  Multiplicity = 1
  Basis Set: AUG-CC-PV(Q+D)Z
    Blend: AUG-CC-PV(Q+D)Z
  Basis Set: (AUG-CC-PV(Q+D)Z AUX)
    Blend: AUG-CC-PVQZ-JKFIT
  @DF-RKS Final Energy:  -343.10485427395997
    Total Energy =                       -343.1048542739599725
    Molecular point group: c1

    Geometry (in Angstrom), charge = 0, multiplicity = 1:

       Center              X                  Y                   Z               Mass
    ------------   -----------------  -----------------  -----------------  -----------------
         P            0.000009196706     0.067655413293    -0.000107440392    30.973761998420
         H            0.594873305154    -0.694290175927     1.033245966292     1.007825032230
         H            0.597508891039    -0.691858148695    -1.032566263251     1.007825032230
         H           -1.192664841058    -0.693123971891     0.002622291866     1.007825032230

  Charge       = 0
  Multiplicity = 1
  Basis Set: AUG-CC-PV(Q+D)Z
    Blend: AUG-CC-PV(Q+D)Z
  Basis Set: (AUG-CC-PV(Q+D)Z AUX)
    Blend: AUG-CC-PVQZ-JKFIT

    Orbital Energies [Eh]
    ---------------------

    Doubly Occupied:

       1A    -77.098227     2A     -6.659950     3A     -4.814463
       4A     -4.814459     5A     -4.810027     6A     -0.773209
       7A     -0.490082     8A     -0.489404     9A     -0.374789

  @DF-RKS Final Energy:  -343.10485427450180

   => Energetics <=

    Nuclear Repulsion Energy =             17.6021436090873671
    One-Electron Energy =                -508.5608519778646155
    Two-Electron Energy =                 165.7980895786939470
    DFT Exchange-Correlation Energy =     -18.0196222220971052
    Empirical Dispersion Energy =           0.0000000000000000
    VV10 Nonlocal Energy =                  0.0753867376785632
    Total Energy =                       -343.1048542745018040

  Dipole Moment: [D]
     X:     0.0001      Y:    -0.6893      Z:    -0.0027     Total:     0.6893

  Vibration                       7                   8                   9
  Freq [cm^-1]                1018.3530           1146.3930           1354.9657
  Irrep                           Ap                  Ap                 App
  Reduced mass [u]              1.0752              1.0258              1.0299
  Force const [mDyne/A]         0.6570              0.7943              1.1141

  Vibration                       10                  11                  12
  Freq [cm^-1]                2452.2560           2454.3355           2514.4355
  Irrep                           Ap                  Ap                 App
  Reduced mass [u]              1.0319              1.0411              1.0368
  Force const [mDyne/A]         3.6561              3.6948              3.8622

  ==> Thermochemistry Components <==

  Entropy, S
    Electronic S            0.000 [cal/(mol K)]        0.000 [J/(mol K)]       0.00000000 [mEh/K] (multiplicity = 1)
    Translational S        36.502 [cal/(mol K)]      152.724 [J/(mol K)]       0.05816968 [mEh/K] (mol. weight = 33.9972 [u], P = 101325.00 [Pa])
    Rotational S           15.670 [cal/(mol K)]       65.564 [J/(mol K)]       0.02497189 [mEh/K] (symmetry no. = 1)
    Vibrational S           0.161 [cal/(mol K)]        0.672 [J/(mol K)]       0.00025598 [mEh/K]
  Total S                  52.333 [cal/(mol K)]      218.960 [J/(mol K)]       0.08339756 [mEh/K]
  Correction S              0.000 [cal/(mol K)]        0.000 [J/(mol K)]       0.00000000 [mEh/K]

  Constant volume heat capacity, Cv
    Electronic Cv           0.000 [cal/(mol K)]        0.000 [J/(mol K)]       0.00000000 [mEh/K]
    Translational Cv        2.981 [cal/(mol K)]       12.472 [J/(mol K)]       0.00475022 [mEh/K]
    Rotational Cv           2.981 [cal/(mol K)]       12.472 [J/(mol K)]       0.00475022 [mEh/K]
    Vibrational Cv          0.729 [cal/(mol K)]        3.050 [J/(mol K)]       0.00116171 [mEh/K]
  Total Cv                  6.691 [cal/(mol K)]       27.993 [J/(mol K)]       0.01066215 [mEh/K]
  Correction Cv             0.000 [cal/(mol K)]        0.000 [J/(mol K)]       0.00000000 [mEh/K]

  Constant pressure heat capacity, Cp
    Electronic Cp           0.000 [cal/(mol K)]        0.000 [J/(mol K)]       0.00000000 [mEh/K]
    Translational Cp        4.968 [cal/(mol K)]       20.786 [J/(mol K)]       0.00791703 [mEh/K]
    Rotational Cp           2.981 [cal/(mol K)]       12.472 [J/(mol K)]       0.00475022 [mEh/K]
    Vibrational Cp          0.729 [cal/(mol K)]        3.050 [J/(mol K)]       0.00116171 [mEh/K]
  Total Cp                  8.678 [cal/(mol K)]       36.308 [J/(mol K)]       0.01382896 [mEh/K]
  Correction Cp             0.000 [cal/(mol K)]        0.000 [J/(mol K)]       0.00000000 [mEh/K]

  ==> Thermochemistry Energy Analysis <==

  Raw electronic energy, E0
  Total E0, Electronic energy at well bottom at 0 [K]                 -343.10485603 [Eh]

  Zero-point energy, ZPE_vib = Sum_i nu_i / 2
    Electronic ZPE          0.000 [kcal/mol]        0.000 [kJ/mol]       0.00000000 [Eh]
    Translational ZPE       0.000 [kcal/mol]        0.000 [kJ/mol]       0.00000000 [Eh]
    Rotational ZPE          0.000 [kcal/mol]        0.000 [kJ/mol]       0.00000000 [Eh]
    Vibrational ZPE        15.641 [kcal/mol]       65.440 [kJ/mol]       0.02492484 [Eh]        5470.369 [cm^-1]
  Correction ZPE           15.641 [kcal/mol]       65.440 [kJ/mol]       0.02492484 [Eh]        5470.369 [cm^-1]
  Total ZPE, Electronic energy at 0 [K]                               -343.07993119 [Eh]

  Thermal Energy, E (includes ZPE)
    Electronic E            0.000 [kcal/mol]        0.000 [kJ/mol]       0.00000000 [Eh]
    Translational E         0.889 [kcal/mol]        3.718 [kJ/mol]       0.00141628 [Eh]
    Rotational E            0.889 [kcal/mol]        3.718 [kJ/mol]       0.00141628 [Eh]
    Vibrational E          15.681 [kcal/mol]       65.609 [kJ/mol]       0.02498907 [Eh]
  Correction E             17.458 [kcal/mol]       73.046 [kJ/mol]       0.02782162 [Eh]
  Total E, Electronic energy at  298.15 [K]                           -343.07703440 [Eh]

  Enthalpy, H_trans = E_trans + k_B * T
    Electronic H            0.000 [kcal/mol]        0.000 [kJ/mol]       0.00000000 [Eh]
    Translational H         1.481 [kcal/mol]        6.197 [kJ/mol]       0.00236046 [Eh]
    Rotational H            0.889 [kcal/mol]        3.718 [kJ/mol]       0.00141628 [Eh]
    Vibrational H          15.681 [kcal/mol]       65.609 [kJ/mol]       0.02498907 [Eh]
  Correction H             18.051 [kcal/mol]       75.525 [kJ/mol]       0.02876581 [Eh]
  Total H, Enthalpy at  298.15 [K]                                    -343.07609022 [Eh]

  Gibbs free energy, G = H - T * S
    Electronic G            0.000 [kcal/mol]        0.000 [kJ/mol]       0.00000000 [Eh]
    Translational G        -9.402 [kcal/mol]      -39.337 [kJ/mol]      -0.01498283 [Eh]
    Rotational G           -3.783 [kcal/mol]      -15.829 [kJ/mol]      -0.00602909 [Eh]
    Vibrational G          15.633 [kcal/mol]       65.408 [kJ/mol]       0.02491275 [Eh]
  Correction G              2.448 [kcal/mol]       10.242 [kJ/mol]       0.00390083 [Eh]
  Total G, Free enthalpy at  298.15 [K]                               -343.10095520 [Eh]

*** Psi4 exiting successfully. Buy a developer a beer!
