                               Psi4 1.3.2 release

  ==> Input File <==

--------------------------------------------------------------------------
memory 144 GB

molecule {
0 1
Si 0.0000000000 0.0000000000 0.0000000000
O 0.0000000000 0.0000000000 1.5170406700
}

set dynamic_level 1
set basis aug-cc-pV(Q+d)Z

optimize("wB97X-V")
frequencies("wB97X-V")
--------------------------------------------------------------------------

    Molecular point group: c2v
  Charge       = 0
  Multiplicity = 1
  Basis Set: AUG-CC-PV(Q+D)Z
    Blend: AUG-CC-PV(Q+D)Z
  Basis Set: (AUG-CC-PV(Q+D)Z AUX)
    Blend: AUG-CC-PVQZ-JKFIT
  @DF-RKS Final Energy:  -364.69838627101575
    Total Energy =                       -364.6983862710157496
    Molecular point group: c2v
  Basis Set: AUG-CC-PV(Q+D)Z
    Blend: AUG-CC-PV(Q+D)Z
  Basis Set: (AUG-CC-PV(Q+D)Z AUX)
    Blend: AUG-CC-PVQZ-JKFIT
  @DF-RKS Final Energy:  -364.69836099919576
    Total Energy =                       -364.6983609991957564
  Basis Set: AUG-CC-PV(Q+D)Z
    Blend: AUG-CC-PV(Q+D)Z
  Basis Set: (AUG-CC-PV(Q+D)Z AUX)
    Blend: AUG-CC-PVQZ-JKFIT
  @DF-RKS Final Energy:  -364.69841005983369
    Total Energy =                       -364.6984100598337477
  Basis Set: AUG-CC-PV(Q+D)Z
    Blend: AUG-CC-PV(Q+D)Z
  Basis Set: (AUG-CC-PV(Q+D)Z AUX)
    Blend: AUG-CC-PVQZ-JKFIT
  @DF-RKS Final Energy:  -364.69858140458757
    Total Energy =                       -364.6985814045876282
  @DF-RKS Final Energy:  -364.69857749720273
    Total Energy =                       -364.6985774972027343
  @DF-RKS Final Energy:  -364.69858373223616
    Total Energy =                       -364.6985837322362158
  @DF-RKS Final Energy:  -364.69858446826396
    Total Energy =                       -364.6985844682639595
  @DF-RKS Final Energy:  -364.69858378801820
    Total Energy =                       -364.6985837880181975
  @DF-RKS Final Energy:  -364.69858355508995
    Total Energy =                       -364.6985835550900106
  **** Optimization is complete! (in 3 steps) ****
    Final optimized geometry and variables:
  @DF-RKS Final Energy:  -364.69858446826470
    Total Energy =                       -364.6985844682646416
  @DF-RKS Final Energy:  -364.69858378801797
    Total Energy =                       -364.6985837880179133
  Basis Set: AUG-CC-PV(Q+D)Z
    Blend: AUG-CC-PV(Q+D)Z
  Basis Set: (AUG-CC-PV(Q+D)Z AUX)
    Blend: AUG-CC-PVQZ-JKFIT
  @DF-RKS Final Energy:  -364.69858355509012
    Total Energy =                       -364.6985835550900674
  Basis Set: AUG-CC-PV(Q+D)Z
    Blend: AUG-CC-PV(Q+D)Z
  Basis Set: (AUG-CC-PV(Q+D)Z AUX)
    Blend: AUG-CC-PVQZ-JKFIT
  @DF-RKS Final Energy:  -364.69858446826521
    Total Energy =                       -364.6985844682653237
  Multiplicity = 1
  Basis Set: AUG-CC-PV(Q+D)Z
    Blend: AUG-CC-PV(Q+D)Z
  Basis Set: (AUG-CC-PV(Q+D)Z AUX)
    Blend: AUG-CC-PVQZ-JKFIT
  @DF-RKS Final Energy:  -364.69858378801820
    Total Energy =                       -364.6985837880181975
    Molecular point group: c2v

    Geometry (in Angstrom), charge = 0, multiplicity = 1:

       Center              X                  Y                   Z               Mass
    ------------   -----------------  -----------------  -----------------  -----------------
         SI           0.000000000000     0.000000000000    -0.546689106715    27.976926534650
         O            0.000000000000     0.000000000000     0.956221482867    15.994914619570

  Charge       = 0
  Multiplicity = 1
  Basis Set: AUG-CC-PV(Q+D)Z
    Blend: AUG-CC-PV(Q+D)Z
  Basis Set: (AUG-CC-PV(Q+D)Z AUX)
    Blend: AUG-CC-PVQZ-JKFIT

    Orbital Energies [Eh]
    ---------------------

    Doubly Occupied:

       1A1   -66.195881     2A1   -19.193942     3A1    -5.427113
       1B1    -3.779812     1B2    -3.779812     4A1    -3.771812
       5A1    -1.070223     6A1    -0.547667     2B1    -0.441175
       2B2    -0.441175     7A1    -0.412258

  @DF-RKS Final Energy:  -364.69858355509007

   => Energetics <=

    Nuclear Repulsion Energy =             39.4353782626023204
    One-Electron Energy =                -583.3549836758199945
    Two-Electron Energy =                 200.9068087444197204
    DFT Exchange-Correlation Energy =     -21.7787750388958656
    Empirical Dispersion Energy =           0.0000000000000000
    VV10 Nonlocal Energy =                  0.0929881526037867
    Total Energy =                       -364.6985835550900674

  Dipole Moment: [D]
     X:     0.0000      Y:     0.0000      Z:    -3.2193     Total:     3.2193

  Vibration                       6
  Freq [cm^-1]                1297.7759
  Irrep                           A1
  Reduced mass [u]             18.9466
  Force const [mDyne/A]        18.8010

  ==> Thermochemistry Components <==

  Entropy, S
    Electronic S            0.000 [cal/(mol K)]        0.000 [J/(mol K)]       0.00000000 [mEh/K] (multiplicity = 1)
    Translational S        37.269 [cal/(mol K)]      155.933 [J/(mol K)]       0.05939177 [mEh/K] (mol. weight = 43.9718 [u], P = 101325.00 [Pa])
    Rotational S           13.205 [cal/(mol K)]       55.250 [J/(mol K)]       0.02104349 [mEh/K] (symmetry no. = 1)
    Vibrational S           0.028 [cal/(mol K)]        0.115 [J/(mol K)]       0.00004392 [mEh/K]
  Total S                  50.501 [cal/(mol K)]      211.298 [J/(mol K)]       0.08047918 [mEh/K]
  Correction S              0.000 [cal/(mol K)]        0.000 [J/(mol K)]       0.00000000 [mEh/K]

  Constant volume heat capacity, Cv
    Electronic Cv           0.000 [cal/(mol K)]        0.000 [J/(mol K)]       0.00000000 [mEh/K]
    Translational Cv        2.981 [cal/(mol K)]       12.472 [J/(mol K)]       0.00475022 [mEh/K]
    Rotational Cv           1.987 [cal/(mol K)]        8.314 [J/(mol K)]       0.00316681 [mEh/K]
    Vibrational Cv          0.149 [cal/(mol K)]        0.624 [J/(mol K)]       0.00023766 [mEh/K]
  Total Cv                  5.117 [cal/(mol K)]       21.410 [J/(mol K)]       0.00815469 [mEh/K]
  Correction Cv             0.000 [cal/(mol K)]        0.000 [J/(mol K)]       0.00000000 [mEh/K]

  Constant pressure heat capacity, Cp
    Electronic Cp           0.000 [cal/(mol K)]        0.000 [J/(mol K)]       0.00000000 [mEh/K]
    Translational Cp        4.968 [cal/(mol K)]       20.786 [J/(mol K)]       0.00791703 [mEh/K]
    Rotational Cp           1.987 [cal/(mol K)]        8.314 [J/(mol K)]       0.00316681 [mEh/K]
    Vibrational Cp          0.149 [cal/(mol K)]        0.624 [J/(mol K)]       0.00023766 [mEh/K]
  Total Cp                  7.104 [cal/(mol K)]       29.725 [J/(mol K)]       0.01132150 [mEh/K]
  Correction Cp             0.000 [cal/(mol K)]        0.000 [J/(mol K)]       0.00000000 [mEh/K]

  ==> Thermochemistry Energy Analysis <==

  Raw electronic energy, E0
  Total E0, Electronic energy at well bottom at 0 [K]                 -364.69858447 [Eh]

  Zero-point energy, ZPE_vib = Sum_i nu_i / 2
    Electronic ZPE          0.000 [kcal/mol]        0.000 [kJ/mol]       0.00000000 [Eh]
    Translational ZPE       0.000 [kcal/mol]        0.000 [kJ/mol]       0.00000000 [Eh]
    Rotational ZPE          0.000 [kcal/mol]        0.000 [kJ/mol]       0.00000000 [Eh]
    Vibrational ZPE         1.855 [kcal/mol]        7.762 [kJ/mol]       0.00295655 [Eh]         648.888 [cm^-1]
  Correction ZPE            1.855 [kcal/mol]        7.762 [kJ/mol]       0.00295655 [Eh]         648.888 [cm^-1]
  Total ZPE, Electronic energy at 0 [K]                               -364.69562792 [Eh]

  Thermal Energy, E (includes ZPE)
    Electronic E            0.000 [kcal/mol]        0.000 [kJ/mol]       0.00000000 [Eh]
    Translational E         0.889 [kcal/mol]        3.718 [kJ/mol]       0.00141628 [Eh]
    Rotational E            0.592 [kcal/mol]        2.479 [kJ/mol]       0.00094418 [Eh]
    Vibrational E           1.862 [kcal/mol]        7.792 [kJ/mol]       0.00296784 [Eh]
  Correction E              3.344 [kcal/mol]       13.989 [kJ/mol]       0.00532831 [Eh]
  Total E, Electronic energy at  298.15 [K]                           -364.69325616 [Eh]

  Enthalpy, H_trans = E_trans + k_B * T
    Electronic H            0.000 [kcal/mol]        0.000 [kJ/mol]       0.00000000 [Eh]
    Translational H         1.481 [kcal/mol]        6.197 [kJ/mol]       0.00236046 [Eh]
    Rotational H            0.592 [kcal/mol]        2.479 [kJ/mol]       0.00094418 [Eh]
    Vibrational H           1.862 [kcal/mol]        7.792 [kJ/mol]       0.00296784 [Eh]
  Correction H              3.936 [kcal/mol]       16.468 [kJ/mol]       0.00627249 [Eh]
  Total H, Enthalpy at  298.15 [K]                                    -364.69231198 [Eh]

  Gibbs free energy, G = H - T * S
    Electronic G            0.000 [kcal/mol]        0.000 [kJ/mol]       0.00000000 [Eh]
    Translational G        -9.631 [kcal/mol]      -40.294 [kJ/mol]      -0.01534720 [Eh]
    Rotational G           -3.345 [kcal/mol]      -13.994 [kJ/mol]      -0.00532993 [Eh]
    Vibrational G           1.854 [kcal/mol]        7.758 [kJ/mol]       0.00295475 [Eh]
  Correction G            -11.121 [kcal/mol]      -46.530 [kJ/mol]      -0.01772238 [Eh]
  Total G, Free enthalpy at  298.15 [K]                               -364.71630685 [Eh]

*** Psi4 exiting successfully. Buy a developer a beer!
