                               Psi4 1.3.2 release

  ==> Input File <==

--------------------------------------------------------------------------
memory 144 GB

molecule {
0 1
S 0.0000000000 0.0000000000 0.0000000000
O 0.0000000000 0.0000000000 1.4355085900
O 1.2508167239 0.0000000000 -0.7043737894
}

set dynamic_level 1
set basis aug-cc-pV(Q+d)Z

optimize("wB97X-V")
frequencies("wB97X-V")
--------------------------------------------------------------------------

    Molecular point group: c2v
  Charge       = 0
  Multiplicity = 1
  Basis Set: AUG-CC-PV(Q+D)Z
    Blend: AUG-CC-PV(Q+D)Z
  Basis Set: (AUG-CC-PV(Q+D)Z AUX)
    Blend: AUG-CC-PVQZ-JKFIT
  @DF-RKS Final Energy:  -548.61058482728777
    Total Energy =                       -548.6105848272877665
    Molecular point group: c2v
  Basis Set: AUG-CC-PV(Q+D)Z
    Blend: AUG-CC-PV(Q+D)Z
  Basis Set: (AUG-CC-PV(Q+D)Z AUX)
    Blend: AUG-CC-PVQZ-JKFIT
  @DF-RKS Final Energy:  -548.61057093503871
    Total Energy =                       -548.6105709350385951
  Basis Set: AUG-CC-PV(Q+D)Z
    Blend: AUG-CC-PV(Q+D)Z
  Basis Set: (AUG-CC-PV(Q+D)Z AUX)
    Blend: AUG-CC-PVQZ-JKFIT
  @DF-RKS Final Energy:  -548.61059796139773
    Total Energy =                       -548.6105979613976160
  Basis Set: AUG-CC-PV(Q+D)Z
    Blend: AUG-CC-PV(Q+D)Z
  Basis Set: (AUG-CC-PV(Q+D)Z AUX)
    Blend: AUG-CC-PVQZ-JKFIT
  @DF-RKS Final Energy:  -548.61060559532837
    Total Energy =                       -548.6106055953283658
  @DF-RKS Final Energy:  -548.61056316433314
    Total Energy =                       -548.6105631643332572
  @DF-RKS Final Energy:  -548.61080165106137
    Total Energy =                       -548.6108016510613652
  @DF-RKS Final Energy:  -548.61079442603830
    Total Energy =                       -548.6107944260382965
  @DF-RKS Final Energy:  -548.61080810282351
    Total Energy =                       -548.6108081028235119
  @DF-RKS Final Energy:  -548.61080535888141
    Total Energy =                       -548.6108053588815210
  @DF-RKS Final Energy:  -548.61079701653307
    Total Energy =                       -548.6107970165329561
  @DF-RKS Final Energy:  -548.61083033376599
    Total Energy =                       -548.6108303337659891
  @DF-RKS Final Energy:  -548.61083151969979
    Total Energy =                       -548.6108315196997864
  @DF-RKS Final Energy:  -548.61082834265085
    Total Energy =                       -548.6108283426509615
  @DF-RKS Final Energy:  -548.61082916622127
    Total Energy =                       -548.6108291662213787
  @DF-RKS Final Energy:  -548.61083054872711
    Total Energy =                       -548.6108305487272219
  @DF-RKS Final Energy:  -548.61083217834334
    Total Energy =                       -548.6108321783433439
  @DF-RKS Final Energy:  -548.61083174904559
    Total Energy =                       -548.6108317490457011
  @DF-RKS Final Energy:  -548.61083180153707
    Total Energy =                       -548.6108318015370742
  @DF-RKS Final Energy:  -548.61083171994881
    Total Energy =                       -548.6108317199489193
  @DF-RKS Final Energy:  -548.61083167946072
    Total Energy =                       -548.6108316794608299
  **** Optimization is complete! (in 4 steps) ****
    Final optimized geometry and variables:
  @DF-RKS Final Energy:  -548.61083217834425
    Total Energy =                       -548.6108321783441397
  @DF-RKS Final Energy:  -548.61083175274734
    Total Energy =                       -548.6108317527473446
  @DF-RKS Final Energy:  -548.61083180462060
    Total Energy =                       -548.6108318046204886
  @DF-RKS Final Energy:  -548.61083171994926
    Total Energy =                       -548.6108317199493740
  @DF-RKS Final Energy:  -548.61083167946106
    Total Energy =                       -548.6108316794609436
  @DF-RKS Final Energy:  -548.61083217834448
    Total Energy =                       -548.6108321783443671
  @DF-RKS Final Energy:  -548.61083175274712
    Total Energy =                       -548.6108317527470035
  @DF-RKS Final Energy:  -548.61083180462128
    Total Energy =                       -548.6108318046213981
  @DF-RKS Final Energy:  -548.61083171994881
    Total Energy =                       -548.6108317199488056
  Basis Set: AUG-CC-PV(Q+D)Z
    Blend: AUG-CC-PV(Q+D)Z
  Basis Set: (AUG-CC-PV(Q+D)Z AUX)
    Blend: AUG-CC-PVQZ-JKFIT
  @DF-RKS Final Energy:  -548.61083167946060
    Total Energy =                       -548.6108316794606026
  Basis Set: AUG-CC-PV(Q+D)Z
    Blend: AUG-CC-PV(Q+D)Z
  Basis Set: (AUG-CC-PV(Q+D)Z AUX)
    Blend: AUG-CC-PVQZ-JKFIT
  @DF-RKS Final Energy:  -548.61083190377065
    Total Energy =                       -548.6108319037706451
  Multiplicity = 1
  Basis Set: AUG-CC-PV(Q+D)Z
    Blend: AUG-CC-PV(Q+D)Z
  Basis Set: (AUG-CC-PV(Q+D)Z AUX)
    Blend: AUG-CC-PVQZ-JKFIT
  @DF-RKS Final Energy:  -548.61083188509258
    Total Energy =                       -548.6108318850925798
    Molecular point group: cs

    Geometry (in Angstrom), charge = 0, multiplicity = 1:

       Center              X                  Y                   Z               Mass
    ------------   -----------------  -----------------  -----------------  -----------------
         S            0.000000000000    -0.000305502108    -0.361948865248    31.972071174400
         O            0.000000000000     1.229155444934     0.361927758680    15.994914619570
         O            0.000000000000    -1.228544779896     0.361568124633    15.994914619570

  Charge       = 0
  Multiplicity = 1
  Basis Set: AUG-CC-PV(Q+D)Z
    Blend: AUG-CC-PV(Q+D)Z
  Basis Set: (AUG-CC-PV(Q+D)Z AUX)
    Blend: AUG-CC-PVQZ-JKFIT

    Orbital Energies [Eh]
    ---------------------

    Doubly Occupied:

       1Ap   -89.074514     2Ap   -19.273497     3Ap   -19.273324
       4Ap    -8.210348     1App   -6.168682     5Ap    -6.164841
       6Ap    -6.161256     7Ap    -1.288954     8Ap    -1.191685
       9Ap    -0.759873     2App   -0.618724    10Ap    -0.618370
      11Ap    -0.612457     3App   -0.488018    12Ap    -0.476877
      13Ap    -0.445251

  @DF-RKS Final Energy:  -548.61083119931050

   => Energetics <=

    Nuclear Repulsion Energy =            108.7718738712622155
    One-Electron Energy =                -971.6060101303893362
    Two-Electron Energy =                 345.7913607306604717
    DFT Exchange-Correlation Energy =     -31.7006112445117481
    Empirical Dispersion Energy =           0.0000000000000000
    VV10 Nonlocal Energy =                  0.1325555736678943
    Total Energy =                       -548.6108311993104962

  Dipole Moment: [D]
     X:     0.0000      Y:    -0.0064      Z:    -1.6921     Total:     1.6921

  Vibration                       7                   8                   9
  Freq [cm^-1]                 542.7426           1249.8517           1438.6268
  Irrep                           A1                  A1                  B2
  Reduced mass [u]             18.6296             17.9417             20.3240
  Force const [mDyne/A]         3.2333             16.5132             24.7831

  ==> Thermochemistry Components <==

  Entropy, S
    Electronic S            0.000 [cal/(mol K)]        0.000 [J/(mol K)]       0.00000000 [mEh/K] (multiplicity = 1)
    Translational S        38.386 [cal/(mol K)]      160.607 [J/(mol K)]       0.06117186 [mEh/K] (mol. weight = 63.9619 [u], P = 101325.00 [Pa])
    Rotational S           20.196 [cal/(mol K)]       84.499 [J/(mol K)]       0.03218381 [mEh/K] (symmetry no. = 2)
    Vibrational S           0.608 [cal/(mol K)]        2.545 [J/(mol K)]       0.00096941 [mEh/K]
  Total S                  59.190 [cal/(mol K)]      247.650 [J/(mol K)]       0.09432508 [mEh/K]
  Correction S              0.000 [cal/(mol K)]        0.000 [J/(mol K)]       0.00000000 [mEh/K]

  Constant volume heat capacity, Cv
    Electronic Cv           0.000 [cal/(mol K)]        0.000 [J/(mol K)]       0.00000000 [mEh/K]
    Translational Cv        2.981 [cal/(mol K)]       12.472 [J/(mol K)]       0.00475022 [mEh/K]
    Rotational Cv           2.981 [cal/(mol K)]       12.472 [J/(mol K)]       0.00475022 [mEh/K]
    Vibrational Cv          1.423 [cal/(mol K)]        5.953 [J/(mol K)]       0.00226733 [mEh/K]
  Total Cv                  7.384 [cal/(mol K)]       30.896 [J/(mol K)]       0.01176776 [mEh/K]
  Correction Cv             0.000 [cal/(mol K)]        0.000 [J/(mol K)]       0.00000000 [mEh/K]

  Constant pressure heat capacity, Cp
    Electronic Cp           0.000 [cal/(mol K)]        0.000 [J/(mol K)]       0.00000000 [mEh/K]
    Translational Cp        4.968 [cal/(mol K)]       20.786 [J/(mol K)]       0.00791703 [mEh/K]
    Rotational Cp           2.981 [cal/(mol K)]       12.472 [J/(mol K)]       0.00475022 [mEh/K]
    Vibrational Cp          1.423 [cal/(mol K)]        5.953 [J/(mol K)]       0.00226733 [mEh/K]
  Total Cp                  9.372 [cal/(mol K)]       39.211 [J/(mol K)]       0.01493457 [mEh/K]
  Correction Cp             0.000 [cal/(mol K)]        0.000 [J/(mol K)]       0.00000000 [mEh/K]

  ==> Thermochemistry Energy Analysis <==

  Raw electronic energy, E0
  Total E0, Electronic energy at well bottom at 0 [K]                 -548.61083218 [Eh]

  Zero-point energy, ZPE_vib = Sum_i nu_i / 2
    Electronic ZPE          0.000 [kcal/mol]        0.000 [kJ/mol]       0.00000000 [Eh]
    Translational ZPE       0.000 [kcal/mol]        0.000 [kJ/mol]       0.00000000 [Eh]
    Rotational ZPE          0.000 [kcal/mol]        0.000 [kJ/mol]       0.00000000 [Eh]
    Vibrational ZPE         4.619 [kcal/mol]       19.327 [kJ/mol]       0.00736126 [Eh]        1615.611 [cm^-1]
  Correction ZPE            4.619 [kcal/mol]       19.327 [kJ/mol]       0.00736126 [Eh]        1615.611 [cm^-1]
  Total ZPE, Electronic energy at 0 [K]                               -548.60347092 [Eh]

  Thermal Energy, E (includes ZPE)
    Electronic E            0.000 [kcal/mol]        0.000 [kJ/mol]       0.00000000 [Eh]
    Translational E         0.889 [kcal/mol]        3.718 [kJ/mol]       0.00141628 [Eh]
    Rotational E            0.889 [kcal/mol]        3.718 [kJ/mol]       0.00141628 [Eh]
    Vibrational E           4.754 [kcal/mol]       19.890 [kJ/mol]       0.00757567 [Eh]
  Correction E              6.531 [kcal/mol]       27.327 [kJ/mol]       0.01040823 [Eh]
  Total E, Electronic energy at  298.15 [K]                           -548.60042395 [Eh]

  Enthalpy, H_trans = E_trans + k_B * T
    Electronic H            0.000 [kcal/mol]        0.000 [kJ/mol]       0.00000000 [Eh]
    Translational H         1.481 [kcal/mol]        6.197 [kJ/mol]       0.00236046 [Eh]
    Rotational H            0.889 [kcal/mol]        3.718 [kJ/mol]       0.00141628 [Eh]
    Vibrational H           4.754 [kcal/mol]       19.890 [kJ/mol]       0.00757567 [Eh]
  Correction H              7.124 [kcal/mol]       29.806 [kJ/mol]       0.01135241 [Eh]
  Total H, Enthalpy at  298.15 [K]                                    -548.59947977 [Eh]

  Gibbs free energy, G = H - T * S
    Electronic G            0.000 [kcal/mol]        0.000 [kJ/mol]       0.00000000 [Eh]
    Translational G        -9.964 [kcal/mol]      -41.687 [kJ/mol]      -0.01587793 [Eh]
    Rotational G           -5.133 [kcal/mol]      -21.475 [kJ/mol]      -0.00817932 [Eh]
    Vibrational G           4.572 [kcal/mol]       19.131 [kJ/mol]       0.00728664 [Eh]
  Correction G            -10.524 [kcal/mol]      -44.031 [kJ/mol]      -0.01677061 [Eh]
  Total G, Free enthalpy at  298.15 [K]                               -548.62760279 [Eh]

*** Psi4 exiting successfully. Buy a developer a beer!
