                               Psi4 1.3.2 release

  ==> Input File <==

--------------------------------------------------------------------------
memory 144 GB

molecule {
0 1
C -0.0479167327 0.6682939561 0.0000000000
H -1.0907101856 0.9776732069 0.0000000000
H 0.4344161461 1.0815239129 0.8898543791
H 0.4344161461 1.0815239129 -0.8898543791
O -0.0410920225 -0.7509554452 0.0000000000
H 0.8712936485 -1.0420305436 0.0000000000
}

set dynamic_level 1
set basis aug-cc-pV(Q+d)Z

optimize("wB97X-V")
frequencies("wB97X-V")
--------------------------------------------------------------------------

    Molecular point group: cs
  Charge       = 0
  Multiplicity = 1
  Basis Set: AUG-CC-PV(Q+D)Z
    Blend: AUG-CC-PV(Q+D)Z
  Basis Set: (AUG-CC-PV(Q+D)Z AUX)
    Blend: AUG-CC-PVQZ-JKFIT
  @DF-RKS Final Energy:  -115.73866965669109
    Total Energy =                       -115.7386696566910729
    Molecular point group: cs
  Basis Set: AUG-CC-PV(Q+D)Z
    Blend: AUG-CC-PV(Q+D)Z
  Basis Set: (AUG-CC-PV(Q+D)Z AUX)
    Blend: AUG-CC-PVQZ-JKFIT
  @DF-RKS Final Energy:  -115.73867142445606
    Total Energy =                       -115.7386714244560579
  Basis Set: AUG-CC-PV(Q+D)Z
    Blend: AUG-CC-PV(Q+D)Z
  Basis Set: (AUG-CC-PV(Q+D)Z AUX)
    Blend: AUG-CC-PVQZ-JKFIT
  @DF-RKS Final Energy:  -115.73866390453685
    Total Energy =                       -115.7386639045368497
  Basis Set: AUG-CC-PV(Q+D)Z
    Blend: AUG-CC-PV(Q+D)Z
  Basis Set: (AUG-CC-PV(Q+D)Z AUX)
    Blend: AUG-CC-PVQZ-JKFIT
  @DF-RKS Final Energy:  -115.73867062114981
    Total Energy =                       -115.7386706211498080
  @DF-RKS Final Energy:  -115.73866707610655
    Total Energy =                       -115.7386670761065517
  @DF-RKS Final Energy:  -115.73867606370654
    Total Energy =                       -115.7386760637065208
  @DF-RKS Final Energy:  -115.73865575847266
    Total Energy =                       -115.7386557584726461
  @DF-RKS Final Energy:  -115.73866789203976
    Total Energy =                       -115.7386678920397571
  @DF-RKS Final Energy:  -115.73866909258301
    Total Energy =                       -115.7386690925830095
  @DF-RKS Final Energy:  -115.73867133437167
    Total Energy =                       -115.7386713343716735
  @DF-RKS Final Energy:  -115.73866558722939
    Total Energy =                       -115.7386655872293915
  @DF-RKS Final Energy:  -115.73866328828379
    Total Energy =                       -115.7386632882837745
  @DF-RKS Final Energy:  -115.73867390268391
    Total Energy =                       -115.7386739026839138
  @DF-RKS Final Energy:  -115.73865634394168
    Total Energy =                       -115.7386563439416847
  @DF-RKS Final Energy:  -115.73867643798850
    Total Energy =                       -115.7386764379885022
  @DF-RKS Final Energy:  -115.73866648823588
    Total Energy =                       -115.7386664882358644
  @DF-RKS Final Energy:  -115.73865840756720
    Total Energy =                       -115.7386584075672005
  @DF-RKS Final Energy:  -115.73869773733897
    Total Energy =                       -115.7386977373389669
  @DF-RKS Final Energy:  -115.73869439640879
    Total Energy =                       -115.7386943964087891
  @DF-RKS Final Energy:  -115.73869719114950
    Total Energy =                       -115.7386971911494982
  **** Optimization is complete! (in 3 steps) ****
    Final optimized geometry and variables:
  @DF-RKS Final Energy:  -115.73869201523667
    Total Energy =                       -115.7386920152366514
  @DF-RKS Final Energy:  -115.73869159155389
    Total Energy =                       -115.7386915915538879
  @DF-RKS Final Energy:  -115.73868932812557
    Total Energy =                       -115.7386893281255738
  @DF-RKS Final Energy:  -115.73868989945615
    Total Energy =                       -115.7386898994561619
  @DF-RKS Final Energy:  -115.73869810429535
    Total Energy =                       -115.7386981042953522
  @DF-RKS Final Energy:  -115.73869863480039
    Total Energy =                       -115.7386986348004001
  @DF-RKS Final Energy:  -115.73869900633336
    Total Energy =                       -115.7386990063333627
  @DF-RKS Final Energy:  -115.73869799375368
    Total Energy =                       -115.7386979937536751
  @DF-RKS Final Energy:  -115.73869543499788
    Total Energy =                       -115.7386954349978936
  @DF-RKS Final Energy:  -115.73869543189336
    Total Energy =                       -115.7386954318933618
  @DF-RKS Final Energy:  -115.73869894794382
    Total Energy =                       -115.7386989479438171
  @DF-RKS Final Energy:  -115.73869894869465
    Total Energy =                       -115.7386989486946476
  @DF-RKS Final Energy:  -115.73869952224273
    Total Energy =                       -115.7386995222427259
  @DF-RKS Final Energy:  -115.73869951851196
    Total Energy =                       -115.7386995185119645
  @DF-RKS Final Energy:  -115.73869871168793
    Total Energy =                       -115.7386987116879311
  @DF-RKS Final Energy:  -115.73869872552632
    Total Energy =                       -115.7386987255263193
  Basis Set: AUG-CC-PV(Q+D)Z
    Blend: AUG-CC-PV(Q+D)Z
  Basis Set: (AUG-CC-PV(Q+D)Z AUX)
    Blend: AUG-CC-PVQZ-JKFIT
  @DF-RKS Final Energy:  -115.73869789407942
    Total Energy =                       -115.7386978940794222
  Basis Set: AUG-CC-PV(Q+D)Z
    Blend: AUG-CC-PV(Q+D)Z
  Basis Set: (AUG-CC-PV(Q+D)Z AUX)
    Blend: AUG-CC-PVQZ-JKFIT
  @DF-RKS Final Energy:  -115.73869791458124
    Total Energy =                       -115.7386979145812376
  Multiplicity = 1
  Basis Set: AUG-CC-PV(Q+D)Z
    Blend: AUG-CC-PV(Q+D)Z
  Basis Set: (AUG-CC-PV(Q+D)Z AUX)
    Blend: AUG-CC-PVQZ-JKFIT
  @DF-RKS Final Energy:  -115.73869470285157
    Total Energy =                       -115.7386947028515749
    Molecular point group: c1

    Geometry (in Angstrom), charge = 0, multiplicity = 1:

       Center              X                  Y                   Z               Mass
    ------------   -----------------  -----------------  -----------------  -----------------
         C           -0.030188153950     0.727107950285    -0.000000000000    12.000000000000
         H           -1.074945922111     1.037884121170    -0.000000000000     1.007825032230
         H            0.453024797045     1.137228886273     0.891412357831     1.007825032230
         H            0.455288458761     1.141042369692    -0.893461190732     1.007825032230
         O           -0.022702952793    -0.691761138816     0.000201396991    15.994914619570
         H            0.886390179498    -0.994953904383    -0.001147483491     1.007825032230

  Charge       = 0
  Multiplicity = 1
  Basis Set: AUG-CC-PV(Q+D)Z
    Blend: AUG-CC-PV(Q+D)Z
  Basis Set: (AUG-CC-PV(Q+D)Z AUX)
    Blend: AUG-CC-PVQZ-JKFIT

    Orbital Energies [Eh]
    ---------------------

    Doubly Occupied:

       1A    -19.212090     2A    -10.309923     3A     -1.151647
       4A     -0.811467     5A     -0.623057     6A     -0.554757
       7A     -0.537712     8A     -0.446598     9A     -0.386879

  @DF-RKS Final Energy:  -115.73869471117447

   => Energetics <=

    Nuclear Repulsion Energy =             40.3234698889388383
    One-Electron Energy =                -236.9599409743654519
    Two-Electron Energy =                  91.5376895066903842
    DFT Exchange-Correlation Energy =     -10.7135341416533230
    Empirical Dispersion Energy =           0.0000000000000000
    VV10 Nonlocal Energy =                  0.0736210092150985
    Total Energy =                       -115.7386947111744604

  Dipole Moment: [D]
     X:     1.3613      Y:     0.9791      Z:     0.0005     Total:     1.6768

  Vibration                       7                   8                   9
  Freq [cm^-1]                 260.2158           1059.9341           1095.6203
  Irrep                          App                  Ap                  Ap
  Reduced mass [u]              1.0708              1.4101              2.8854
  Force const [mDyne/A]         0.0427              0.9334              2.0407

  Vibration                       10                  11                  12
  Freq [cm^-1]                1184.8871           1366.7796           1479.4645
  Irrep                          App                  Ap                  Ap
  Reduced mass [u]              1.2660              1.2953              1.1209
  Force const [mDyne/A]         1.0472              1.4257              1.4456

  Vibration                       13                  14                  15
  Freq [cm^-1]                1509.0508           1516.0705           3026.9610
  Irrep                          App                  Ap                  Ap
  Reduced mass [u]              1.0490              1.0538              1.0359
  Force const [mDyne/A]         1.4075              1.4271              5.5920

  Vibration                       16                  17                  18
  Freq [cm^-1]                3073.8373           3140.8173           3895.4478
  Irrep                          App                  Ap                  Ap
  Reduced mass [u]              1.1054              1.0985              1.0666
  Force const [mDyne/A]         6.1538              6.3845              9.5359

  ==> Thermochemistry Components <==

  Entropy, S
    Electronic S            0.000 [cal/(mol K)]        0.000 [J/(mol K)]       0.00000000 [mEh/K] (multiplicity = 1)
    Translational S        36.324 [cal/(mol K)]      151.980 [J/(mol K)]       0.05788598 [mEh/K] (mol. weight = 32.0262 [u], P = 101325.00 [Pa])
    Rotational S           18.982 [cal/(mol K)]       79.423 [J/(mol K)]       0.03025047 [mEh/K] (symmetry no. = 1)
    Vibrational S           1.897 [cal/(mol K)]        7.937 [J/(mol K)]       0.00302312 [mEh/K]
  Total S                  57.203 [cal/(mol K)]      239.339 [J/(mol K)]       0.09115957 [mEh/K]
  Correction S              0.000 [cal/(mol K)]        0.000 [J/(mol K)]       0.00000000 [mEh/K]

  Constant volume heat capacity, Cv
    Electronic Cv           0.000 [cal/(mol K)]        0.000 [J/(mol K)]       0.00000000 [mEh/K]
    Translational Cv        2.981 [cal/(mol K)]       12.472 [J/(mol K)]       0.00475022 [mEh/K]
    Rotational Cv           2.981 [cal/(mol K)]       12.472 [J/(mol K)]       0.00475022 [mEh/K]
    Vibrational Cv          2.903 [cal/(mol K)]       12.146 [J/(mol K)]       0.00462614 [mEh/K]
  Total Cv                  8.865 [cal/(mol K)]       37.089 [J/(mol K)]       0.01412657 [mEh/K]
  Correction Cv             0.000 [cal/(mol K)]        0.000 [J/(mol K)]       0.00000000 [mEh/K]

  Constant pressure heat capacity, Cp
    Electronic Cp           0.000 [cal/(mol K)]        0.000 [J/(mol K)]       0.00000000 [mEh/K]
    Translational Cp        4.968 [cal/(mol K)]       20.786 [J/(mol K)]       0.00791703 [mEh/K]
    Rotational Cp           2.981 [cal/(mol K)]       12.472 [J/(mol K)]       0.00475022 [mEh/K]
    Vibrational Cp          2.903 [cal/(mol K)]       12.146 [J/(mol K)]       0.00462614 [mEh/K]
  Total Cp                 10.852 [cal/(mol K)]       45.404 [J/(mol K)]       0.01729338 [mEh/K]
  Correction Cp             0.000 [cal/(mol K)]        0.000 [J/(mol K)]       0.00000000 [mEh/K]

  ==> Thermochemistry Energy Analysis <==

  Raw electronic energy, E0
  Total E0, Electronic energy at well bottom at 0 [K]                 -115.73870000 [Eh]

  Zero-point energy, ZPE_vib = Sum_i nu_i / 2
    Electronic ZPE          0.000 [kcal/mol]        0.000 [kJ/mol]       0.00000000 [Eh]
    Translational ZPE       0.000 [kcal/mol]        0.000 [kJ/mol]       0.00000000 [Eh]
    Rotational ZPE          0.000 [kcal/mol]        0.000 [kJ/mol]       0.00000000 [Eh]
    Vibrational ZPE        32.321 [kcal/mol]      135.232 [kJ/mol]       0.05150729 [Eh]       11304.543 [cm^-1]
  Correction ZPE           32.321 [kcal/mol]      135.232 [kJ/mol]       0.05150729 [Eh]       11304.543 [cm^-1]
  Total ZPE, Electronic energy at 0 [K]                               -115.68719271 [Eh]

  Thermal Energy, E (includes ZPE)
    Electronic E            0.000 [kcal/mol]        0.000 [kJ/mol]       0.00000000 [Eh]
    Translational E         0.889 [kcal/mol]        3.718 [kJ/mol]       0.00141628 [Eh]
    Rotational E            0.889 [kcal/mol]        3.718 [kJ/mol]       0.00141628 [Eh]
    Vibrational E          32.678 [kcal/mol]      136.723 [kJ/mol]       0.05207515 [Eh]
  Correction E             34.455 [kcal/mol]      144.160 [kJ/mol]       0.05490770 [Eh]
  Total E, Electronic energy at  298.15 [K]                           -115.68379229 [Eh]

  Enthalpy, H_trans = E_trans + k_B * T
    Electronic H            0.000 [kcal/mol]        0.000 [kJ/mol]       0.00000000 [Eh]
    Translational H         1.481 [kcal/mol]        6.197 [kJ/mol]       0.00236046 [Eh]
    Rotational H            0.889 [kcal/mol]        3.718 [kJ/mol]       0.00141628 [Eh]
    Vibrational H          32.678 [kcal/mol]      136.723 [kJ/mol]       0.05207515 [Eh]
  Correction H             35.048 [kcal/mol]      146.639 [kJ/mol]       0.05585189 [Eh]
  Total H, Enthalpy at  298.15 [K]                                    -115.68284811 [Eh]

  Gibbs free energy, G = H - T * S
    Electronic G            0.000 [kcal/mol]        0.000 [kJ/mol]       0.00000000 [Eh]
    Translational G        -9.349 [kcal/mol]      -39.115 [kJ/mol]      -0.01489824 [Eh]
    Rotational G           -4.771 [kcal/mol]      -19.961 [kJ/mol]      -0.00760290 [Eh]
    Vibrational G          32.112 [kcal/mol]      134.357 [kJ/mol]       0.05117381 [Eh]
  Correction G             17.992 [kcal/mol]       75.280 [kJ/mol]       0.02867266 [Eh]
  Total G, Free enthalpy at  298.15 [K]                               -115.71002733 [Eh]

*** Psi4 exiting successfully. Buy a developer a beer!
