                               Psi4 1.3.2 release

  ==> Input File <==

--------------------------------------------------------------------------
memory 144 GB

molecule {
0 3
S 0.0000000000 0.0000000000 0.0000000000
S 0.0000000000 0.0000000000 1.8968845900
}

set reference uks
set dynamic_level 1
set basis aug-cc-pV(Q+d)Z

optimize("wB97X-V")
frequencies("wB97X-V")
--------------------------------------------------------------------------

    Molecular point group: d2h
  Charge       = 0
  Multiplicity = 3
  Basis Set: AUG-CC-PV(Q+D)Z
    Blend: AUG-CC-PV(Q+D)Z
  Basis Set: (AUG-CC-PV(Q+D)Z AUX)
    Blend: AUG-CC-PVQZ-JKFIT
  @DF-UKS Final Energy:  -796.28441399785834
    Total Energy =                       -796.2844139978582234
    Molecular point group: d2h
  Basis Set: AUG-CC-PV(Q+D)Z
    Blend: AUG-CC-PV(Q+D)Z
  Basis Set: (AUG-CC-PV(Q+D)Z AUX)
    Blend: AUG-CC-PVQZ-JKFIT
  @DF-UKS Final Energy:  -796.28439521214273
    Total Energy =                       -796.2843952121429538
  Basis Set: AUG-CC-PV(Q+D)Z
    Blend: AUG-CC-PV(Q+D)Z
  Basis Set: (AUG-CC-PV(Q+D)Z AUX)
    Blend: AUG-CC-PVQZ-JKFIT
  @DF-UKS Final Energy:  -796.28443226647482
    Total Energy =                       -796.2844322664747096
  Basis Set: AUG-CC-PV(Q+D)Z
    Blend: AUG-CC-PV(Q+D)Z
  Basis Set: (AUG-CC-PV(Q+D)Z AUX)
    Blend: AUG-CC-PVQZ-JKFIT
  @DF-UKS Final Energy:  -796.28470257138997
    Total Energy =                       -796.2847025713899711
  @DF-UKS Final Energy:  -796.28469673989321
    Total Energy =                       -796.2846967398933202
  @DF-UKS Final Energy:  -796.28470783627984
    Total Energy =                       -796.2847078362798356
  @DF-UKS Final Energy:  -796.28472945365365
    Total Energy =                       -796.2847294536536538
  @DF-UKS Final Energy:  -796.28472945661906
    Total Energy =                       -796.2847294566191749
  @DF-UKS Final Energy:  -796.28472886358770
    Total Energy =                       -796.2847288635875884
  **** Optimization is complete! (in 3 steps) ****
    Final optimized geometry and variables:
  @DF-UKS Final Energy:  -796.28472945365434
    Total Energy =                       -796.2847294536542222
  @DF-UKS Final Energy:  -796.28472945661906
    Total Energy =                       -796.2847294566194023
  Basis Set: AUG-CC-PV(Q+D)Z
    Blend: AUG-CC-PV(Q+D)Z
  Basis Set: (AUG-CC-PV(Q+D)Z AUX)
    Blend: AUG-CC-PVQZ-JKFIT
  @DF-UKS Final Energy:  -796.28472886358770
    Total Energy =                       -796.2847288635878158
  Basis Set: AUG-CC-PV(Q+D)Z
    Blend: AUG-CC-PV(Q+D)Z
  Basis Set: (AUG-CC-PV(Q+D)Z AUX)
    Blend: AUG-CC-PVQZ-JKFIT
  @DF-UKS Final Energy:  -796.28472945365456
    Total Energy =                       -796.2847294536545633
  Multiplicity = 3
  Basis Set: AUG-CC-PV(Q+D)Z
    Blend: AUG-CC-PV(Q+D)Z
  Basis Set: (AUG-CC-PV(Q+D)Z AUX)
    Blend: AUG-CC-PVQZ-JKFIT
  @DF-UKS Final Energy:  -796.28472945661906
    Total Energy =                       -796.2847294566192886
    Molecular point group: d2h

    Geometry (in Angstrom), charge = 0, multiplicity = 3:

       Center              X                  Y                   Z               Mass
    ------------   -----------------  -----------------  -----------------  -----------------
         S            0.000000000000     0.000000000000    -0.936865355279    31.972071174400
         S            0.000000000000     0.000000000000     0.936865355279    31.972071174400

  Charge       = 0
  Multiplicity = 3
  Basis Set: AUG-CC-PV(Q+D)Z
    Blend: AUG-CC-PV(Q+D)Z
  Basis Set: (AUG-CC-PV(Q+D)Z AUX)
    Blend: AUG-CC-PVQZ-JKFIT

    Orbital Energies [Eh]
    ---------------------

    Alpha Occupied:

       1B1u  -88.945086     1Ag   -88.945082     2Ag    -8.098048
       2B1u   -8.097840     1B3u   -6.053096     1B2u   -6.053096
       1B2g   -6.053039     1B3g   -6.053039     3Ag    -6.052575
       3B1u   -6.051665     4Ag    -0.977541     4B1u   -0.755711
       5Ag    -0.503292     2B2u   -0.492729     2B3u   -0.492729
       2B3g   -0.342531     2B2g   -0.342531

    Alpha Virtual:

       5B1u    0.040550     6Ag     0.067855     3B2u    0.077554
       3B3u    0.077554     7Ag     0.090763     3B2g    0.097309
       3B3g    0.097309     6B1u    0.097356     8Ag     0.158937
       1B1g    0.158937     7B1u    0.179976     4B3u    0.212690
       4B2u    0.212690     9Ag     0.219140     1Au     0.244716
       8B1u    0.244719     4B2g    0.264217     4B3g    0.264217
       9B1u    0.282016     5B3u    0.348384     5B2u    0.348384
      10Ag     0.382352     2B1g    0.401851    11Ag     0.401851
       6B2u    0.404567     6B3u    0.404567    10B1u    0.439837
      12Ag     0.441963     5B2g    0.467535     5B3g    0.467535
       2Au     0.486856    11B1u    0.486858     7B2u    0.489556
       7B3u    0.489556    13Ag     0.541139     6B2g    0.577804
       6B3g    0.577804    14Ag     0.588018     3B1g    0.588021
       7B3g    0.613139     7B2g    0.613139    12B1u    0.646532
       8B2u    0.734673     8B3u    0.734673     3Au     0.745933
      13B1u    0.745944    14B1u    0.793122    15Ag     0.838694
       8B2g    0.867941     8B3g    0.867941    15B1u    0.983928
       9B3u    1.113782     9B2u    1.113782    16Ag     1.134098
       4B1g    1.134099    17Ag     1.213134    16B1u    1.236652
       4Au     1.236661     9B2g    1.260938     9B3g    1.260938
      17B1u    1.276586    18Ag     1.291604    10B2u    1.291669
      10B3u    1.291669    19Ag     1.306225     5B1g    1.306234
       6B1g    1.317851    20Ag     1.317851    11B3u    1.383035
      11B2u    1.383035    12B3u    1.416330    12B2u    1.416330
      10B2g    1.452827    10B3g    1.452827    13B2u    1.476258
      13B3u    1.476258     5Au     1.487424    18B1u    1.487428
       6Au     1.542793    19B1u    1.542804    11B2g    1.613068
      11B3g    1.613068    21Ag     1.616781    20B1u    1.626700
      12B2g    1.632576    12B3g    1.632576     7B1g    1.673721
      22Ag     1.673731    13B2g    1.744019    13B3g    1.744019
      21B1u    2.014688    14B3u    2.032290    14B2u    2.032290
      23Ag     2.138919    22B1u    2.157332     7Au     2.157332
      23B1u    2.173368    14B2g    2.471635    14B3g    2.471635
      24Ag     2.606450    24B1u    2.611589    25Ag     2.807491
       8B1g    2.807506    15B3u    2.887660    15B2u    2.887660
      25B1u    2.898376     8Au     2.898396    26Ag     3.072512
      27Ag     3.224877    15B3g    3.294082    15B2g    3.294082
       9B1g    3.340657    28Ag     3.340667    16B2u    3.346276
      16B3u    3.346276    17B2u    3.408129    17B3u    3.408129
      16B3g    3.472957    16B2g    3.472957    18B3u    3.523991
      18B2u    3.523991    10B1g    3.568294    29Ag     3.568295
      30Ag     3.577410    11B1g    3.577447    26B1u    3.585514
      27B1u    3.651946     9Au     3.651984    10Au     3.659191
      28B1u    3.659191    17B3g    3.727001    17B2g    3.727001
      18B3g    3.812122    18B2g    3.812122    19B2u    3.880282
      19B3u    3.880282    29B1u    3.988575    31Ag     4.071473
      11Au     4.147162    30B1u    4.147167    19B3g    4.592037
      19B2g    4.592037    31B1u    4.942204    20B3u    5.369437
      20B2u    5.369437    20B2g    6.037441    20B3g    6.037441
      32Ag     6.753041    32B1u    6.835983    12B1g    8.760536
      33Ag     8.760585    12Au     8.832380    33B1u    8.832430
      21B3u    8.875364    21B2u    8.875364    21B2g    9.231395
      21B3g    9.231395    34Ag     9.245468    34B1u    9.319183
      35Ag    17.781300    35B1u   20.318495

    Beta Occupied:

       1B1u  -88.939628     1Ag   -88.939626     2Ag    -8.092839
       2B1u   -8.092554     3Ag    -6.049142     3B1u   -6.048221
       1B3u   -6.041956     1B2u   -6.041956     1B2g   -6.041881
       1B3g   -6.041881     4Ag    -0.948832     4B1u   -0.687712
       5Ag    -0.478478     2B2u   -0.430541     2B3u   -0.430541

    Beta Virtual:

       2B3g   -0.055191     2B2g   -0.055191     5B1u    0.045043
       6Ag     0.070752     3B3u    0.080018     3B2u    0.080018
       7Ag     0.091466     3B2g    0.103093     3B3g    0.103093
       6B1u    0.109832     1B1g    0.165211     8Ag     0.165211
       7B1u    0.186879     9Ag     0.222499     4B2u    0.226426
       4B3u    0.226426     1Au     0.253874     8B1u    0.253878
       4B2g    0.271416     4B3g    0.271416     9B1u    0.286736
       5B3u    0.352654     5B2u    0.352654    10Ag     0.386640
       2B1g    0.420302    11Ag     0.420303     6B2u    0.429605
       6B3u    0.429605    10B1u    0.445362    12Ag     0.447211
       5B2g    0.476804     5B3g    0.476804     7B2u    0.490212
       7B3u    0.490212     2Au     0.521935    11B1u    0.521938
      13Ag     0.548582     6B2g    0.588239     6B3g    0.588239
      14Ag     0.592480     3B1g    0.592482     7B3g    0.613673
       7B2g    0.613673    12B1u    0.653367     8B2u    0.737561
       8B3u    0.737561     3Au     0.751694    13B1u    0.751704
      14B1u    0.798606    15Ag     0.852611     8B2g    0.882521
       8B3g    0.882521    15B1u    0.991489     9B2u    1.119334
       9B3u    1.119334    16Ag     1.155249     4B1g    1.155249
      17Ag     1.216442    16B1u    1.259357     4Au     1.259366
       9B2g    1.281165     9B3g    1.281165    17B1u    1.290402
      10B2u    1.297514    10B3u    1.297514    18Ag     1.298628
      19Ag     1.321798     5B1g    1.321801    20Ag     1.321869
       6B1g    1.321878    11B3u    1.407749    11B2u    1.407749
      12B3u    1.434072    12B2u    1.434072    10B2g    1.478284
      10B3g    1.478284    13B2u    1.489572    13B3u    1.489572
      18B1u    1.493088     5Au     1.493091     6Au     1.556528
      19B1u    1.556543    11B2g    1.619892    11B3g    1.619892
      21Ag     1.622096    20B1u    1.635008    12B2g    1.644136
      12B3g    1.644136     7B1g    1.679068    22Ag     1.679085
      13B2g    1.748927    13B3g    1.748927    21B1u    2.025577
      14B3u    2.041403    14B2u    2.041403    23Ag     2.162481
      22B1u    2.169011     7Au     2.169012    23B1u    2.182743
      14B2g    2.490244    14B3g    2.490244    24Ag     2.615814
      24B1u    2.629576    25Ag     2.830107     8B1g    2.830124
      15B3u    2.901549    15B2u    2.901549    25B1u    2.920786
       8Au     2.920809    26Ag     3.080259    27Ag     3.239298
      15B3g    3.311621    15B2g    3.311621     9B1g    3.356796
      28Ag     3.356808    16B2u    3.357872    16B3u    3.357872
      17B2u    3.450004    17B3u    3.450004    16B3g    3.515241
      16B2g    3.515241    18B3u    3.550296    18B2u    3.550296
      10B1g    3.597249    29Ag     3.597256    26B1u    3.601085
      30Ag     3.615679    11B1g    3.615724     9Au     3.686272
      27B1u    3.686279    28B1u    3.689823    10Au     3.689871
      17B3g    3.743619    17B2g    3.743619    18B3g    3.839465
      18B2g    3.839465    19B2u    3.902057    19B3u    3.902057
      29B1u    4.004096    31Ag     4.084191    11Au     4.168411
      30B1u    4.168420    19B3g    4.607555    19B2g    4.607555
      31B1u    4.951071    20B3u    5.392111    20B2u    5.392111
      20B2g    6.059451    20B3g    6.059451    32Ag     6.760490
      32B1u    6.843298    12B1g    8.775337    33Ag     8.775388
      12Au     8.847677    33B1u    8.847728    21B3u    8.884377
      21B2u    8.884377    21B2g    9.241292    21B3g    9.241292
      34Ag     9.254931    34B1u    9.328198    35Ag    17.791958
      35B1u   20.328488

    Final Occupation by Irrep:
             Ag   B1g   B2g   B3g    Au   B1u   B2u   B3u
    DOCC [     5,    0,    1,    1,    0,    4,    2,    2 ]
    SOCC [     0,    0,    1,    1,    0,    0,    0,    0 ]

  @DF-UKS Final Energy:  -796.28472886358770

   => Energetics <=

    Nuclear Repulsion Energy =             72.2992718047037499
    One-Electron Energy =               -1243.1537083454477397
    Two-Electron Energy =                 413.1557576880585430
    DFT Exchange-Correlation Energy =     -38.7196503116808017
    Empirical Dispersion Energy =           0.0000000000000000
    VV10 Nonlocal Energy =                  0.1336003007787572
    Total Energy =                       -796.2847288635874747

  UHF NO Occupations:
  HONO-2 :    2B3u 1.9968394
  HONO-1 :    2B2g 1.0000000
  HONO-0 :    2B3g 1.0000000
  LUNO+0 :    3B3u 0.0031606
  LUNO+1 :    3B2u 0.0031606
  LUNO+2 :    5B1u 0.0008077
  LUNO+3 :    6 Ag 0.0005410

Computation Completed

Properties will be evaluated at   0.000000,   0.000000,   0.000000 [a0]

Properties computed using the SCF density matrix

  Nuclear Dipole Moment: [e a0]
     X:     0.0000      Y:     0.0000      Z:     0.0000

  Electronic Dipole Moment: [e a0]
     X:     0.0000      Y:     0.0000      Z:     0.0000

  Dipole Moment: [e a0]
     X:     0.0000      Y:     0.0000      Z:     0.0000     Total:     0.0000

  Dipole Moment: [D]
     X:     0.0000      Y:     0.0000      Z:     0.0000     Total:     0.0000

*** tstop() called on bp1-compute00067.data.bp.acrc.priv at Tue Apr 27 16:44:14 2021
Module time:
	user time   =     244.70 seconds =       4.08 minutes
	system time =      10.31 seconds =       0.17 minutes
	total time  =         11 seconds =       0.18 minutes
Total time:
	user time   =    2971.51 seconds =      49.53 minutes
	system time =     142.43 seconds =       2.37 minutes
	total time  =        134 seconds =       2.23 minutes

         ----------------------------------------------------------
                                   FINDIF
                     R. A. King and Jonathon Misiewicz
         ---------------------------------------------------------

  Computing second-derivative from energies using projected,
  symmetry-adapted, cartesian coordinates.

  3 energies passed in, including the reference geometry.
    Using 3-point formula.
    Energy without displacement: -796.2847294537
    Check energies below for precision!
    0: -1 :      -796.2847294566
    0: 1  :      -796.2847288636

-------------------------------------------------------------

  ==> Harmonic Vibrational Analysis <==

  non-mass-weighted Hessian:       Symmetric? True   Hermitian? True   Lin Dep Dim?  5 (0)
  projection of translations (True) and rotations (True) removed 5 degrees of freedom (5)
  total projector:                 Symmetric? True   Hermitian? True   Lin Dep Dim?  5 (5)
  mass-weighted Hessian:           Symmetric? True   Hermitian? True   Lin Dep Dim?  5 (0)
  pre-proj  low-frequency mode:    0.0000  [cm^-1]
  pre-proj  low-frequency mode:    0.0000  [cm^-1]
  pre-proj  low-frequency mode:    0.0000  [cm^-1]
  pre-proj  low-frequency mode:    0.0000  [cm^-1]
  pre-proj  low-frequency mode:    0.0000  [cm^-1]
  pre-proj  all modes:['0.0000' '0.0000' '0.0000' '0.0000' '0.0000' '787.7551']
  projected mass-weighted Hessian: Symmetric? True   Hermitian? True   Lin Dep Dim?  5 (5)
  post-proj low-frequency mode:    0.0000  [cm^-1] (TR)
  post-proj low-frequency mode:    0.0000  [cm^-1] (TR)
  post-proj low-frequency mode:    0.0000  [cm^-1] (TR)
  post-proj low-frequency mode:    0.0000  [cm^-1] (TR)
  post-proj low-frequency mode:    0.0000  [cm^-1] (TR)
  post-proj  all modes:['0.0000' '0.0000' '0.0000' '0.0000' '0.0000' '787.7551']

  Vibration                       6
  Freq [cm^-1]                 787.7551
  Irrep                           Ag
  Reduced mass [u]             31.9721
  Force const [mDyne/A]        11.6897
  Turning point v=0 [a0]        0.0691
  RMS dev v=0 [a0 u^1/2]        0.2764
  Char temp [K]               1133.4042
  ----------------------------------------------------------------------------------
      1   S                0.00  0.00  0.71
      2   S                0.00  0.00 -0.71

  ==> Thermochemistry Components <==

  Entropy, S
    Electronic S            2.183 [cal/(mol K)]        9.134 [J/(mol K)]       0.00347910 [mEh/K] (multiplicity = 3)
    Translational S        38.385 [cal/(mol K)]      160.603 [J/(mol K)]       0.06117054 [mEh/K] (mol. weight = 63.9441 [u], P = 101325.00 [Pa])
    Rotational S           13.601 [cal/(mol K)]       56.905 [J/(mol K)]       0.02167409 [mEh/K] (symmetry no. = 2)
    Vibrational S           0.217 [cal/(mol K)]        0.910 [J/(mol K)]       0.00034661 [mEh/K]
  Total S                  54.386 [cal/(mol K)]      227.553 [J/(mol K)]       0.08667033 [mEh/K]
  Correction S              0.000 [cal/(mol K)]        0.000 [J/(mol K)]       0.00000000 [mEh/K]

  Constant volume heat capacity, Cv
    Electronic Cv           0.000 [cal/(mol K)]        0.000 [J/(mol K)]       0.00000000 [mEh/K]
    Translational Cv        2.981 [cal/(mol K)]       12.472 [J/(mol K)]       0.00475022 [mEh/K]
    Rotational Cv           1.987 [cal/(mol K)]        8.314 [J/(mol K)]       0.00316681 [mEh/K]
    Vibrational Cv          0.671 [cal/(mol K)]        2.808 [J/(mol K)]       0.00106953 [mEh/K]
  Total Cv                  5.639 [cal/(mol K)]       23.594 [J/(mol K)]       0.00898656 [mEh/K]
  Correction Cv             0.000 [cal/(mol K)]        0.000 [J/(mol K)]       0.00000000 [mEh/K]

  Constant pressure heat capacity, Cp
    Electronic Cp           0.000 [cal/(mol K)]        0.000 [J/(mol K)]       0.00000000 [mEh/K]
    Translational Cp        4.968 [cal/(mol K)]       20.786 [J/(mol K)]       0.00791703 [mEh/K]
    Rotational Cp           1.987 [cal/(mol K)]        8.314 [J/(mol K)]       0.00316681 [mEh/K]
    Vibrational Cp          0.671 [cal/(mol K)]        2.808 [J/(mol K)]       0.00106953 [mEh/K]
  Total Cp                  7.626 [cal/(mol K)]       31.909 [J/(mol K)]       0.01215337 [mEh/K]
  Correction Cp             0.000 [cal/(mol K)]        0.000 [J/(mol K)]       0.00000000 [mEh/K]

  ==> Thermochemistry Energy Analysis <==

  Raw electronic energy, E0
  Total E0, Electronic energy at well bottom at 0 [K]                 -796.28472945 [Eh]

  Zero-point energy, ZPE_vib = Sum_i nu_i / 2
    Electronic ZPE          0.000 [kcal/mol]        0.000 [kJ/mol]       0.00000000 [Eh]
    Translational ZPE       0.000 [kcal/mol]        0.000 [kJ/mol]       0.00000000 [Eh]
    Rotational ZPE          0.000 [kcal/mol]        0.000 [kJ/mol]       0.00000000 [Eh]
    Vibrational ZPE         1.126 [kcal/mol]        4.712 [kJ/mol]       0.00179464 [Eh]         393.878 [cm^-1]
  Correction ZPE            1.126 [kcal/mol]        4.712 [kJ/mol]       0.00179464 [Eh]         393.878 [cm^-1]
  Total ZPE, Electronic energy at 0 [K]                               -796.28293482 [Eh]

  Thermal Energy, E (includes ZPE)
    Electronic E            0.000 [kcal/mol]        0.000 [kJ/mol]       0.00000000 [Eh]
    Translational E         0.889 [kcal/mol]        3.718 [kJ/mol]       0.00141628 [Eh]
    Rotational E            0.592 [kcal/mol]        2.479 [kJ/mol]       0.00094418 [Eh]
    Vibrational E           1.178 [kcal/mol]        4.927 [kJ/mol]       0.00187665 [Eh]
  Correction E              2.659 [kcal/mol]       11.125 [kJ/mol]       0.00423711 [Eh]
  Total E, Electronic energy at  298.15 [K]                           -796.28049234 [Eh]

  Enthalpy, H_trans = E_trans + k_B * T
    Electronic H            0.000 [kcal/mol]        0.000 [kJ/mol]       0.00000000 [Eh]
    Translational H         1.481 [kcal/mol]        6.197 [kJ/mol]       0.00236046 [Eh]
    Rotational H            0.592 [kcal/mol]        2.479 [kJ/mol]       0.00094418 [Eh]
    Vibrational H           1.178 [kcal/mol]        4.927 [kJ/mol]       0.00187665 [Eh]
  Correction H              3.251 [kcal/mol]       13.603 [kJ/mol]       0.00518129 [Eh]
  Total H, Enthalpy at  298.15 [K]                                    -796.27954816 [Eh]

  Gibbs free energy, G = H - T * S
    Electronic G           -0.651 [kcal/mol]       -2.723 [kJ/mol]      -0.00103729 [Eh]
    Translational G        -9.963 [kcal/mol]      -41.686 [kJ/mol]      -0.01587754 [Eh]
    Rotational G           -3.463 [kcal/mol]      -14.487 [kJ/mol]      -0.00551794 [Eh]
    Vibrational G           1.113 [kcal/mol]        4.656 [kJ/mol]       0.00177331 [Eh]
  Correction G            -12.964 [kcal/mol]      -54.241 [kJ/mol]      -0.02065946 [Eh]
  Total G, Free enthalpy at  298.15 [K]                               -796.30538892 [Eh]

    Psi4 stopped on: Tuesday, 27 April 2021 04:44PM
    Psi4 wall time for execution: 0:02:14.44

*** Psi4 exiting successfully. Buy a developer a beer!
