                               Psi4 1.3.2 release

  ==> Input File <==

--------------------------------------------------------------------------
memory 144 GB

molecule {
0 3
S 0.0000000000 0.0000000000 0.0000000000
S 0.0000000000 0.0000000000 1.8968845900
}

set reference uks
set basis aug-cc-pV(Q+d)Z

optimize("WB97X-V")
frequencies("WB97X-V")
--------------------------------------------------------------------------

    Molecular point group: d2h
  Charge       = 0
  Multiplicity = 3
  Basis Set: AUG-CC-PV(Q+D)Z
    Blend: AUG-CC-PV(Q+D)Z
  Basis Set: (AUG-CC-PV(Q+D)Z AUX)
    Blend: AUG-CC-PVQZ-JKFIT
  @DF-UKS Final Energy:  -796.28441399785856
    Total Energy =                       -796.2844139978582234
    Molecular point group: d2h
  Basis Set: AUG-CC-PV(Q+D)Z
    Blend: AUG-CC-PV(Q+D)Z
  Basis Set: (AUG-CC-PV(Q+D)Z AUX)
    Blend: AUG-CC-PVQZ-JKFIT
  @DF-UKS Final Energy:  -796.28439521214295
    Total Energy =                       -796.2843952121429538
  Basis Set: AUG-CC-PV(Q+D)Z
    Blend: AUG-CC-PV(Q+D)Z
  Basis Set: (AUG-CC-PV(Q+D)Z AUX)
    Blend: AUG-CC-PVQZ-JKFIT
  @DF-UKS Final Energy:  -796.28443226647482
    Total Energy =                       -796.2844322664748233
  Basis Set: AUG-CC-PV(Q+D)Z
    Blend: AUG-CC-PV(Q+D)Z
  Basis Set: (AUG-CC-PV(Q+D)Z AUX)
    Blend: AUG-CC-PVQZ-JKFIT
  @DF-UKS Final Energy:  -796.28470256915728
    Total Energy =                       -796.2847025691572753
  @DF-UKS Final Energy:  -796.28469673638926
    Total Energy =                       -796.2846967363893782
  @DF-UKS Final Energy:  -796.28470783832688
    Total Energy =                       -796.2847078383269945
  @DF-UKS Final Energy:  -796.28472945448812
    Total Energy =                       -796.2847294544883425
  @DF-UKS Final Energy:  -796.28472946232682
    Total Energy =                       -796.2847294623268226
  @DF-UKS Final Energy:  -796.28472885576389
    Total Energy =                       -796.2847288557638876
  **** Optimization is complete! (in 3 steps) ****
    Final optimized geometry and variables:
  @DF-UKS Final Energy:  -796.28472945448755
    Total Energy =                       -796.2847294544877741
  @DF-UKS Final Energy:  -796.28472946232773
    Total Energy =                       -796.2847294623276184
  Basis Set: AUG-CC-PV(Q+D)Z
    Blend: AUG-CC-PV(Q+D)Z
  Basis Set: (AUG-CC-PV(Q+D)Z AUX)
    Blend: AUG-CC-PVQZ-JKFIT
  @DF-UKS Final Energy:  -796.28472885576400
    Total Energy =                       -796.2847288557640013
  Basis Set: AUG-CC-PV(Q+D)Z
    Blend: AUG-CC-PV(Q+D)Z
  Basis Set: (AUG-CC-PV(Q+D)Z AUX)
    Blend: AUG-CC-PVQZ-JKFIT
  @DF-UKS Final Energy:  -796.28472945448755
    Total Energy =                       -796.2847294544875467
  Multiplicity = 3
  Basis Set: AUG-CC-PV(Q+D)Z
    Blend: AUG-CC-PV(Q+D)Z
  Basis Set: (AUG-CC-PV(Q+D)Z AUX)
    Blend: AUG-CC-PVQZ-JKFIT
  @DF-UKS Final Energy:  -796.28472946232773
    Total Energy =                       -796.2847294623277321
    Molecular point group: d2h

    Geometry (in Angstrom), charge = 0, multiplicity = 3:

       Center              X                  Y                   Z               Mass
    ------------   -----------------  -----------------  -----------------  -----------------
         S            0.000000000000     0.000000000000    -0.936862950939    31.972071174400
         S            0.000000000000     0.000000000000     0.936862950939    31.972071174400

  Charge       = 0
  Multiplicity = 3
  Basis Set: AUG-CC-PV(Q+D)Z
    Blend: AUG-CC-PV(Q+D)Z
  Basis Set: (AUG-CC-PV(Q+D)Z AUX)
    Blend: AUG-CC-PVQZ-JKFIT

    Orbital Energies [Eh]
    ---------------------

    Alpha Occupied:

       1B1u  -88.945086     1Ag   -88.945081     2Ag    -8.098048
       2B1u   -8.097839     1B2u   -6.053095     1B3u   -6.053095
       1B3g   -6.053038     1B2g   -6.053038     3Ag    -6.052575
       3B1u   -6.051665     4Ag    -0.977542     4B1u   -0.755710
       5Ag    -0.503292     2B2u   -0.492730     2B3u   -0.492730
       2B3g   -0.342530     2B2g   -0.342530

    Alpha Virtual:

       5B1u    0.040550     6Ag     0.067855     3B2u    0.077554
       3B3u    0.077554     7Ag     0.090763     3B3g    0.097309
       3B2g    0.097309     6B1u    0.097357     8Ag     0.158937
       1B1g    0.158937     7B1u    0.179976     4B3u    0.212690
       4B2u    0.212690     9Ag     0.219140     1Au     0.244716
       8B1u    0.244719     4B3g    0.264217     4B2g    0.264217
       9B1u    0.282016     5B2u    0.348384     5B3u    0.348384
      10Ag     0.382352     2B1g    0.401851    11Ag     0.401851
       6B3u    0.404567     6B2u    0.404567    10B1u    0.439837
      12Ag     0.441963     5B3g    0.467536     5B2g    0.467536
       2Au     0.486856    11B1u    0.486858     7B3u    0.489556
       7B2u    0.489556    13Ag     0.541140     6B3g    0.577805
       6B2g    0.577805    14Ag     0.588018     3B1g    0.588021
       7B3g    0.613139     7B2g    0.613139    12B1u    0.646533
       8B3u    0.734673     8B2u    0.734673     3Au     0.745933
      13B1u    0.745944    14B1u    0.793123    15Ag     0.838694
       8B3g    0.867942     8B2g    0.867942    15B1u    0.983928
       9B2u    1.113782     9B3u    1.113782    16Ag     1.134098
       4B1g    1.134099    17Ag     1.213134    16B1u    1.236652
       4Au     1.236661     9B3g    1.260937     9B2g    1.260937
      17B1u    1.276588    18Ag     1.291603    10B2u    1.291669
      10B3u    1.291669    19Ag     1.306225     5B1g    1.306234
       6B1g    1.317850    20Ag     1.317851    11B3u    1.383035
      11B2u    1.383035    12B2u    1.416330    12B3u    1.416330
      10B2g    1.452827    10B3g    1.452827    13B3u    1.476259
      13B2u    1.476259     5Au     1.487425    18B1u    1.487429
       6Au     1.542793    19B1u    1.542804    11B3g    1.613069
      11B2g    1.613069    21Ag     1.616783    20B1u    1.626701
      12B2g    1.632578    12B3g    1.632578     7B1g    1.673722
      22Ag     1.673733    13B3g    1.744020    13B2g    1.744020
      21B1u    2.014687    14B2u    2.032294    14B3u    2.032294
      23Ag     2.138920    22B1u    2.157335     7Au     2.157335
      23B1u    2.173370    14B3g    2.471634    14B2g    2.471634
      24Ag     2.606453    24B1u    2.611589    25Ag     2.807491
       8B1g    2.807506    15B2u    2.887660    15B3u    2.887660
      25B1u    2.898377     8Au     2.898397    26Ag     3.072514
      27Ag     3.224877    15B2g    3.294087    15B3g    3.294087
       9B1g    3.340654    28Ag     3.340664    16B2u    3.346275
      16B3u    3.346275    17B2u    3.408129    17B3u    3.408129
      16B3g    3.472958    16B2g    3.472958    18B2u    3.523989
      18B3u    3.523989    10B1g    3.568296    29Ag     3.568297
      30Ag     3.577409    11B1g    3.577447    26B1u    3.585516
      27B1u    3.651946     9Au     3.651985    10Au     3.659192
      28B1u    3.659193    17B3g    3.727001    17B2g    3.727001
      18B3g    3.812124    18B2g    3.812124    19B3u    3.880286
      19B2u    3.880286    29B1u    3.988581    31Ag     4.071480
      11Au     4.147167    30B1u    4.147172    19B2g    4.592045
      19B3g    4.592045    31B1u    4.942196    20B3u    5.369438
      20B2u    5.369438    20B2g    6.037444    20B3g    6.037444
      32Ag     6.753044    32B1u    6.836008    12B1g    8.760536
      33Ag     8.760586    12Au     8.832381    33B1u    8.832431
      21B2u    8.875366    21B3u    8.875366    21B2g    9.231400
      21B3g    9.231400    34Ag     9.245472    34B1u    9.319180
      35Ag    17.781319    35B1u   20.318495

    Beta Occupied:

       1B1u  -88.939627     1Ag   -88.939625     2Ag    -8.092839
       2B1u   -8.092553     3Ag    -6.049142     3B1u   -6.048221
       1B2u   -6.041956     1B3u   -6.041956     1B3g   -6.041880
       1B2g   -6.041880     4Ag    -0.948833     4B1u   -0.687711
       5Ag    -0.478478     2B2u   -0.430541     2B3u   -0.430541

    Beta Virtual:

       2B3g   -0.055190     2B2g   -0.055190     5B1u    0.045043
       6Ag     0.070752     3B3u    0.080018     3B2u    0.080018
       7Ag     0.091466     3B3g    0.103093     3B2g    0.103093
       6B1u    0.109833     1B1g    0.165211     8Ag     0.165211
       7B1u    0.186879     9Ag     0.222499     4B3u    0.226426
       4B2u    0.226426     1Au     0.253874     8B1u    0.253878
       4B3g    0.271416     4B2g    0.271416     9B1u    0.286737
       5B3u    0.352654     5B2u    0.352654    10Ag     0.386640
       2B1g    0.420302    11Ag     0.420303     6B3u    0.429605
       6B2u    0.429605    10B1u    0.445362    12Ag     0.447211
       5B3g    0.476804     5B2g    0.476804     7B3u    0.490212
       7B2u    0.490212     2Au     0.521935    11B1u    0.521939
      13Ag     0.548582     6B3g    0.588239     6B2g    0.588239
      14Ag     0.592481     3B1g    0.592483     7B3g    0.613673
       7B2g    0.613673    12B1u    0.653368     8B3u    0.737562
       8B2u    0.737562     3Au     0.751694    13B1u    0.751705
      14B1u    0.798607    15Ag     0.852611     8B3g    0.882522
       8B2g    0.882522    15B1u    0.991490     9B2u    1.119334
       9B3u    1.119334    16Ag     1.155248     4B1g    1.155248
      17Ag     1.216442    16B1u    1.259358     4Au     1.259367
       9B3g    1.281164     9B2g    1.281164    17B1u    1.290404
      10B2u    1.297514    10B3u    1.297514    18Ag     1.298627
      19Ag     1.321797     5B1g    1.321800    20Ag     1.321870
       6B1g    1.321879    11B3u    1.407749    11B2u    1.407749
      12B2u    1.434072    12B3u    1.434072    10B2g    1.478284
      10B3g    1.478284    13B3u    1.489573    13B2u    1.489573
      18B1u    1.493088     5Au     1.493091     6Au     1.556529
      19B1u    1.556544    11B3g    1.619893    11B2g    1.619893
      21Ag     1.622098    20B1u    1.635009    12B2g    1.644138
      12B3g    1.644138     7B1g    1.679070    22Ag     1.679086
      13B3g    1.748928    13B2g    1.748928    21B1u    2.025576
      14B2u    2.041406    14B3u    2.041406    23Ag     2.162482
      22B1u    2.169014     7Au     2.169015    23B1u    2.182745
      14B3g    2.490243    14B2g    2.490243    24Ag     2.615818
      24B1u    2.629577    25Ag     2.830107     8B1g    2.830125
      15B2u    2.901549    15B3u    2.901549    25B1u    2.920787
       8Au     2.920810    26Ag     3.080260    27Ag     3.239298
      15B2g    3.311626    15B3g    3.311626     9B1g    3.356792
      28Ag     3.356805    16B2u    3.357872    16B3u    3.357872
      17B2u    3.450004    17B3u    3.450004    16B3g    3.515241
      16B2g    3.515241    18B2u    3.550294    18B3u    3.550294
      10B1g    3.597251    29Ag     3.597258    26B1u    3.601086
      30Ag     3.615679    11B1g    3.615724     9Au     3.686274
      27B1u    3.686280    28B1u    3.689824    10Au     3.689871
      17B3g    3.743619    17B2g    3.743619    18B3g    3.839467
      18B2g    3.839467    19B3u    3.902061    19B2u    3.902061
      29B1u    4.004102    31Ag     4.084198    11Au     4.168416
      30B1u    4.168425    19B2g    4.607563    19B3g    4.607563
      31B1u    4.951064    20B3u    5.392112    20B2u    5.392112
      20B2g    6.059455    20B3g    6.059455    32Ag     6.760493
      32B1u    6.843322    12B1g    8.775337    33Ag     8.775388
      12Au     8.847677    33B1u    8.847729    21B2u    8.884379
      21B3u    8.884379    21B2g    9.241297    21B3g    9.241297
      34Ag     9.254936    34B1u    9.328195    35Ag    17.791977
      35B1u   20.328489

    Final Occupation by Irrep:
             Ag   B1g   B2g   B3g    Au   B1u   B2u   B3u
    DOCC [     5,    0,    1,    1,    0,    4,    2,    2 ]
    SOCC [     0,    0,    1,    1,    0,    0,    0,    0 ]

  @DF-UKS Final Energy:  -796.28472885576389

   => Energetics <=

    Nuclear Repulsion Energy =             72.2994573516427721
    One-Electron Energy =               -1243.1540814997060806
    Two-Electron Energy =                 413.1559473103357618
    DFT Exchange-Correlation Energy =     -38.7196523123380345
    Empirical Dispersion Energy =           0.0000000000000000
    VV10 Nonlocal Energy =                  0.1336002943017358
    Total Energy =                       -796.2847288557638876

  UHF NO Occupations:
  HONO-2 :    2B3u 1.9968394
  HONO-1 :    2B2g 1.0000000
  HONO-0 :    2B3g 1.0000000
  LUNO+0 :    3B3u 0.0031606
  LUNO+1 :    3B2u 0.0031606
  LUNO+2 :    5B1u 0.0008077
  LUNO+3 :    6 Ag 0.0005410

Computation Completed

Properties will be evaluated at   0.000000,   0.000000,   0.000000 [a0]

Properties computed using the SCF density matrix

  Nuclear Dipole Moment: [e a0]
     X:     0.0000      Y:     0.0000      Z:     0.0000

  Electronic Dipole Moment: [e a0]
     X:     0.0000      Y:     0.0000      Z:     0.0000

  Dipole Moment: [e a0]
     X:     0.0000      Y:     0.0000      Z:     0.0000     Total:     0.0000

  Dipole Moment: [D]
     X:     0.0000      Y:     0.0000      Z:     0.0000     Total:     0.0000

*** tstop() called on bp1-compute00081.data.bp.acrc.priv at Fri Apr 23 08:59:02 2021
Module time:
	user time   =     247.07 seconds =       4.12 minutes
	system time =      12.51 seconds =       0.21 minutes
	total time  =         11 seconds =       0.18 minutes
Total time:
	user time   =    2996.58 seconds =      49.94 minutes
	system time =     150.98 seconds =       2.52 minutes
	total time  =        136 seconds =       2.27 minutes

         ----------------------------------------------------------
                                   FINDIF
                     R. A. King and Jonathon Misiewicz
         ---------------------------------------------------------

  Computing second-derivative from energies using projected,
  symmetry-adapted, cartesian coordinates.

  3 energies passed in, including the reference geometry.
    Using 3-point formula.
    Energy without displacement: -796.2847294545
    Check energies below for precision!
    0: -1 :      -796.2847294623
    0: 1  :      -796.2847288558

-------------------------------------------------------------

  ==> Harmonic Vibrational Analysis <==

  non-mass-weighted Hessian:       Symmetric? True   Hermitian? True   Lin Dep Dim?  5 (0)
  projection of translations (True) and rotations (True) removed 5 degrees of freedom (5)
  total projector:                 Symmetric? True   Hermitian? True   Lin Dep Dim?  5 (5)
  mass-weighted Hessian:           Symmetric? True   Hermitian? True   Lin Dep Dim?  5 (0)
  pre-proj  low-frequency mode:    0.0000  [cm^-1]
  pre-proj  low-frequency mode:    0.0000  [cm^-1]
  pre-proj  low-frequency mode:    0.0000  [cm^-1]
  pre-proj  low-frequency mode:    0.0000  [cm^-1]
  pre-proj  low-frequency mode:    0.0000  [cm^-1]
  pre-proj  all modes:['0.0000' '0.0000' '0.0000' '0.0000' '0.0000' '790.2876']
  projected mass-weighted Hessian: Symmetric? True   Hermitian? True   Lin Dep Dim?  5 (5)
  post-proj low-frequency mode:    0.0000  [cm^-1] (TR)
  post-proj low-frequency mode:    0.0000  [cm^-1] (TR)
  post-proj low-frequency mode:    0.0000  [cm^-1] (TR)
  post-proj low-frequency mode:    0.0000  [cm^-1] (TR)
  post-proj low-frequency mode:    0.0000  [cm^-1] (TR)
  post-proj  all modes:['0.0000' '0.0000' '0.0000' '0.0000' '0.0000' '790.2876']

  Vibration                       6
  Freq [cm^-1]                 790.2876
  Irrep                           Ag
  Reduced mass [u]             31.9721
  Force const [mDyne/A]        11.7650
  Turning point v=0 [a0]        0.0690
  RMS dev v=0 [a0 u^1/2]        0.2760
  Char temp [K]               1137.0480
  ----------------------------------------------------------------------------------
      1   S                0.00  0.00  0.71
      2   S                0.00  0.00 -0.71

  ==> Thermochemistry Components <==

  Entropy, S
    Electronic S            2.183 [cal/(mol K)]        9.134 [J/(mol K)]       0.00347910 [mEh/K] (multiplicity = 3)
    Translational S        38.385 [cal/(mol K)]      160.603 [J/(mol K)]       0.06117054 [mEh/K] (mol. weight = 63.9441 [u], P = 101325.00 [Pa])
    Rotational S           13.601 [cal/(mol K)]       56.905 [J/(mol K)]       0.02167407 [mEh/K] (symmetry no. = 2)
    Vibrational S           0.215 [cal/(mol K)]        0.901 [J/(mol K)]       0.00034318 [mEh/K]
  Total S                  54.384 [cal/(mol K)]      227.544 [J/(mol K)]       0.08666689 [mEh/K]
  Correction S              0.000 [cal/(mol K)]        0.000 [J/(mol K)]       0.00000000 [mEh/K]

  Constant volume heat capacity, Cv
    Electronic Cv           0.000 [cal/(mol K)]        0.000 [J/(mol K)]       0.00000000 [mEh/K]
    Translational Cv        2.981 [cal/(mol K)]       12.472 [J/(mol K)]       0.00475022 [mEh/K]
    Rotational Cv           1.987 [cal/(mol K)]        8.314 [J/(mol K)]       0.00316681 [mEh/K]
    Vibrational Cv          0.667 [cal/(mol K)]        2.790 [J/(mol K)]       0.00106275 [mEh/K]
  Total Cv                  5.635 [cal/(mol K)]       23.576 [J/(mol K)]       0.00897978 [mEh/K]
  Correction Cv             0.000 [cal/(mol K)]        0.000 [J/(mol K)]       0.00000000 [mEh/K]

  Constant pressure heat capacity, Cp
    Electronic Cp           0.000 [cal/(mol K)]        0.000 [J/(mol K)]       0.00000000 [mEh/K]
    Translational Cp        4.968 [cal/(mol K)]       20.786 [J/(mol K)]       0.00791703 [mEh/K]
    Rotational Cp           1.987 [cal/(mol K)]        8.314 [J/(mol K)]       0.00316681 [mEh/K]
    Vibrational Cp          0.667 [cal/(mol K)]        2.790 [J/(mol K)]       0.00106275 [mEh/K]
  Total Cp                  7.622 [cal/(mol K)]       31.891 [J/(mol K)]       0.01214659 [mEh/K]
  Correction Cp             0.000 [cal/(mol K)]        0.000 [J/(mol K)]       0.00000000 [mEh/K]

  ==> Thermochemistry Energy Analysis <==

  Raw electronic energy, E0
  Total E0, Electronic energy at well bottom at 0 [K]                 -796.28472945 [Eh]

  Zero-point energy, ZPE_vib = Sum_i nu_i / 2
    Electronic ZPE          0.000 [kcal/mol]        0.000 [kJ/mol]       0.00000000 [Eh]
    Translational ZPE       0.000 [kcal/mol]        0.000 [kJ/mol]       0.00000000 [Eh]
    Rotational ZPE          0.000 [kcal/mol]        0.000 [kJ/mol]       0.00000000 [Eh]
    Vibrational ZPE         1.130 [kcal/mol]        4.727 [kJ/mol]       0.00180041 [Eh]         395.144 [cm^-1]
  Correction ZPE            1.130 [kcal/mol]        4.727 [kJ/mol]       0.00180041 [Eh]         395.144 [cm^-1]
  Total ZPE, Electronic energy at 0 [K]                               -796.28292905 [Eh]

  Thermal Energy, E (includes ZPE)
    Electronic E            0.000 [kcal/mol]        0.000 [kJ/mol]       0.00000000 [Eh]
    Translational E         0.889 [kcal/mol]        3.718 [kJ/mol]       0.00141628 [Eh]
    Rotational E            0.592 [kcal/mol]        2.479 [kJ/mol]       0.00094418 [Eh]
    Vibrational E           1.181 [kcal/mol]        4.940 [kJ/mol]       0.00188166 [Eh]
  Correction E              2.662 [kcal/mol]       11.138 [kJ/mol]       0.00424212 [Eh]
  Total E, Electronic energy at  298.15 [K]                           -796.28048733 [Eh]

  Enthalpy, H_trans = E_trans + k_B * T
    Electronic H            0.000 [kcal/mol]        0.000 [kJ/mol]       0.00000000 [Eh]
    Translational H         1.481 [kcal/mol]        6.197 [kJ/mol]       0.00236046 [Eh]
    Rotational H            0.592 [kcal/mol]        2.479 [kJ/mol]       0.00094418 [Eh]
    Vibrational H           1.181 [kcal/mol]        4.940 [kJ/mol]       0.00188166 [Eh]
  Correction H              3.254 [kcal/mol]       13.617 [kJ/mol]       0.00518631 [Eh]
  Total H, Enthalpy at  298.15 [K]                                    -796.27954315 [Eh]

  Gibbs free energy, G = H - T * S
    Electronic G           -0.651 [kcal/mol]       -2.723 [kJ/mol]      -0.00103729 [Eh]
    Translational G        -9.963 [kcal/mol]      -41.686 [kJ/mol]      -0.01587754 [Eh]
    Rotational G           -3.463 [kcal/mol]      -14.487 [kJ/mol]      -0.00551794 [Eh]
    Vibrational G           1.117 [kcal/mol]        4.672 [kJ/mol]       0.00177934 [Eh]
  Correction G            -12.960 [kcal/mol]      -54.226 [kJ/mol]      -0.02065343 [Eh]
  Total G, Free enthalpy at  298.15 [K]                               -796.30538288 [Eh]

    Psi4 stopped on: Friday, 23 April 2021 08:59AM
    Psi4 wall time for execution: 0:02:15.82

*** Psi4 exiting successfully. Buy a developer a beer!
