                               Psi4 1.3.2 release

  ==> Input File <==

--------------------------------------------------------------------------
memory 144 GB

molecule {
0 3
S 0.0000000000 0.0000000000 0.0000000000
O 0.0000000000 0.0000000000 1.4862145500
}

set reference uks
set dynamic_level 1
set basis aug-cc-pV(Q+d)Z

optimize("wB97X-V")
frequencies("wB97X-V")
--------------------------------------------------------------------------

    Molecular point group: c2v
  Charge       = 0
  Multiplicity = 3
  Basis Set: AUG-CC-PV(Q+D)Z
    Blend: AUG-CC-PV(Q+D)Z
  Basis Set: (AUG-CC-PV(Q+D)Z AUX)
    Blend: AUG-CC-PVQZ-JKFIT
  @DF-UKS Final Energy:  -473.33371793647075
    Total Energy =                       -473.3337179364706913
    Molecular point group: c2v
  Basis Set: AUG-CC-PV(Q+D)Z
    Blend: AUG-CC-PV(Q+D)Z
  Basis Set: (AUG-CC-PV(Q+D)Z AUX)
    Blend: AUG-CC-PVQZ-JKFIT
  @DF-UKS Final Energy:  -473.33369959006581
    Total Energy =                       -473.3336995900658053
  Basis Set: AUG-CC-PV(Q+D)Z
    Blend: AUG-CC-PV(Q+D)Z
  Basis Set: (AUG-CC-PV(Q+D)Z AUX)
    Blend: AUG-CC-PVQZ-JKFIT
  @DF-UKS Final Energy:  -473.33373495568617
    Total Energy =                       -473.3337349556862819
  Basis Set: AUG-CC-PV(Q+D)Z
    Blend: AUG-CC-PV(Q+D)Z
  Basis Set: (AUG-CC-PV(Q+D)Z AUX)
    Blend: AUG-CC-PVQZ-JKFIT
  @DF-UKS Final Energy:  -473.33382393151038
    Total Energy =                       -473.3338239315103237
  @DF-UKS Final Energy:  -473.33381811915405
    Total Energy =                       -473.3338181191539888
  @DF-UKS Final Energy:  -473.33382835568494
    Total Energy =                       -473.3338283556848296
  @DF-UKS Final Energy:  -473.33383331936545
    Total Energy =                       -473.3338333193654535
  @DF-UKS Final Energy:  -473.33383277076769
    Total Energy =                       -473.3338327707676854
  @DF-UKS Final Energy:  -473.33383245461033
    Total Energy =                       -473.3338324546103308
  **** Optimization is complete! (in 3 steps) ****
    Final optimized geometry and variables:
  @DF-UKS Final Energy:  -473.33383331936477
    Total Energy =                       -473.3338333193647145
  @DF-UKS Final Energy:  -473.33383277076666
    Total Energy =                       -473.3338327707667190
  Basis Set: AUG-CC-PV(Q+D)Z
    Blend: AUG-CC-PV(Q+D)Z
  Basis Set: (AUG-CC-PV(Q+D)Z AUX)
    Blend: AUG-CC-PVQZ-JKFIT
  @DF-UKS Final Energy:  -473.33383245460965
    Total Energy =                       -473.3338324546096487
  Basis Set: AUG-CC-PV(Q+D)Z
    Blend: AUG-CC-PV(Q+D)Z
  Basis Set: (AUG-CC-PV(Q+D)Z AUX)
    Blend: AUG-CC-PVQZ-JKFIT
  @DF-UKS Final Energy:  -473.33383331936568
    Total Energy =                       -473.3338333193657377
  Multiplicity = 3
  Basis Set: AUG-CC-PV(Q+D)Z
    Blend: AUG-CC-PV(Q+D)Z
  Basis Set: (AUG-CC-PV(Q+D)Z AUX)
    Blend: AUG-CC-PVQZ-JKFIT
  @DF-UKS Final Energy:  -473.33383277076723
    Total Energy =                       -473.3338327707673443
    Molecular point group: c2v

    Geometry (in Angstrom), charge = 0, multiplicity = 3:

       Center              X                  Y                   Z               Mass
    ------------   -----------------  -----------------  -----------------  -----------------
         S            0.000000000000     0.000000000000    -0.491797097939    31.972071174400
         O            0.000000000000     0.000000000000     0.983048187042    15.994914619570

  Charge       = 0
  Multiplicity = 3
  Basis Set: AUG-CC-PV(Q+D)Z
    Blend: AUG-CC-PV(Q+D)Z
  Basis Set: (AUG-CC-PV(Q+D)Z AUX)
    Blend: AUG-CC-PVQZ-JKFIT

    Orbital Energies [Eh]
    ---------------------

    Alpha Occupied:

       1A1   -88.986604     2A1   -19.286356     3A1    -8.135850
       1B1    -6.091808     1B2    -6.091808     4A1    -6.090080
       5A1    -1.227347     6A1    -0.812312     2B1    -0.577508
       2B2    -0.577508     7A1    -0.568514     3B2    -0.366578
       3B1    -0.366578

    Alpha Virtual:

       8A1     0.050376     9A1     0.058156     4B2     0.074769
       4B1     0.074769    10A1     0.118202    11A1     0.157303
       5B1     0.161651     5B2     0.161651    12A1     0.176289
       1A2     0.176289     6B2     0.251598     6B1     0.251598
      13A1     0.264253    14A1     0.281830     7B1     0.347926
       7B2     0.347926    15A1     0.376580     2A2     0.418572
      16A1     0.418572    17A1     0.473672     8B2     0.477636
       8B1     0.477636     3A2     0.489903    18A1     0.489904
       9B1     0.520927     9B2     0.520927    10B1     0.585643
      10B2     0.585643    19A1     0.611254    11B2     0.647139
      11B1     0.647139    20A1     0.660200     4A2     0.660208
      21A1     0.702686    22A1     0.743015    12B1     0.878979
      12B2     0.878979    23A1     0.984592    24A1     1.108378
      25A1     1.139541     5A2     1.139541    26A1     1.188714
      13B2     1.192524    13B1     1.192524     6A2     1.256711
      27A1     1.256713    14B2     1.261589    14B1     1.261589
      15B2     1.362633    15B1     1.362633    16B1     1.372260
      16B2     1.372260    28A1     1.376522     7A2     1.376522
      17B2     1.477833    17B1     1.477833    29A1     1.478220
       8A2     1.478226    30A1     1.526392    18B2     1.554283
      18B1     1.554283    31A1     1.570357     9A2     1.589413
      32A1     1.589416    19B1     1.613195    19B2     1.613195
      33A1     1.769815    20B2     1.955299    20B1     1.955299
      34A1     2.067993    10A2     2.086506    35A1     2.086508
      21B2     2.164575    21B1     2.164575    36A1     2.199801
      37A1     2.533335    22B2     2.752202    22B1     2.752202
      11A2     2.806312    38A1     2.806322    39A1     3.029625
      23B1     3.241962    23B2     3.241962    12A2     3.245747
      40A1     3.245749    41A1     3.277363    24B2     3.338743
      24B1     3.338743    25B1     3.395208    25B2     3.395208
      26B2     3.414123    26B1     3.414123    13A2     3.505827
      42A1     3.505846    14A2     3.565203    43A1     3.565204
      15A2     3.579068    44A1     3.579077    45A1     3.751306
      27B2     3.827998    27B1     3.827998    28B2     3.885126
      28B1     3.885126    46A1     3.931325    29B2     3.958697
      29B1     3.958697    16A2     4.053017    47A1     4.053029
      30B1     4.255934    30B2     4.255934    48A1     4.282127
      49A1     4.406284    17A2     4.406292    50A1     4.478861
      18A2     4.748942    51A1     4.748945    31B2     4.770400
      31B1     4.770400    32B2     5.128941    32B1     5.128941
      52A1     5.179568    53A1     5.704108    33B2     6.114850
      33B1     6.114850    54A1     7.524392    55A1     8.746972
      19A2     8.747008    34B2     8.946359    34B1     8.946359
      56A1     9.285510    20A2    10.203301    57A1    10.203654
      35B1    10.308736    35B2    10.308736    36B1    10.421114
      36B2    10.421114    37B1    10.501511    37B2    10.501511
      58A1    10.511556    21A2    10.511571    59A1    10.642967
      60A1    11.257457    38B1    11.380100    38B2    11.380100
      22A2    11.538413    61A1    11.538427    39B1    11.999917
      39B2    11.999917    62A1    12.256089    63A1    12.304045
      23A2    12.304182    40B1    12.727770    40B2    12.727770
      64A1    13.271592    65A1    20.523637    66A1    41.430772

    Beta Occupied:

       1A1   -88.980255     2A1   -19.268207     3A1    -8.129662
       4A1    -6.086284     1B1    -6.078565     1B2    -6.078565
       5A1    -1.187806     6A1    -0.738392     7A1    -0.534612
       2B2    -0.502602     2B1    -0.502602

    Beta Virtual:

       3B2    -0.039515     3B1    -0.039515     8A1     0.055614
       9A1     0.064329     4B1     0.082468     4B2     0.082468
      10A1     0.128748    11A1     0.161615     5B1     0.165289
       5B2     0.165289    12A1     0.187739     1A2     0.187740
       6B1     0.263134     6B2     0.263134    13A1     0.269246
      14A1     0.288786     7B1     0.356790     7B2     0.356790
      15A1     0.385610     2A2     0.447599    16A1     0.447599
      17A1     0.475462     3A2     0.499867    18A1     0.499867
       8B1     0.500291     8B2     0.500291     9B1     0.522177
       9B2     0.522177    10B2     0.605276    10B1     0.605276
      19A1     0.616585    11B2     0.650266    11B1     0.650266
      20A1     0.663296     4A2     0.663304    21A1     0.712048
      22A1     0.752333    12B2     0.887697    12B1     0.887697
      23A1     0.998500    24A1     1.114245    25A1     1.168794
       5A2     1.168794    26A1     1.202439    13B1     1.215979
      13B2     1.215979    14B2     1.262866    14B1     1.262866
       6A2     1.273150    27A1     1.273152    15B2     1.378651
      15B1     1.378651     7A2     1.381955    28A1     1.381955
      16B1     1.403905    16B2     1.403905    17B2     1.491044
      17B1     1.491044    29A1     1.494151     8A2     1.494159
      30A1     1.534747    18B2     1.566594    18B1     1.566594
      31A1     1.576965    32A1     1.594931     9A2     1.594934
      19B1     1.617491    19B2     1.617491    33A1     1.782457
      20B2     1.967024    20B1     1.967024    34A1     2.077076
      10A2     2.101535    35A1     2.101539    21B2     2.185682
      21B1     2.185682    36A1     2.221491    37A1     2.548617
      22B2     2.776119    22B1     2.776119    11A2     2.833728
      38A1     2.833737    39A1     3.040270    12A2     3.262528
      40A1     3.262528    23B2     3.267150    23B1     3.267150
      41A1     3.298471    24B1     3.362876    24B2     3.362876
      25B2     3.424008    25B1     3.424008    26B1     3.455075
      26B2     3.455075    13A2     3.514077    42A1     3.514107
      14A2     3.599141    43A1     3.599142    15A2     3.627052
      44A1     3.627060    45A1     3.771061    27B2     3.845246
      27B1     3.845246    28B2     3.903627    28B1     3.903627
      46A1     3.952023    29B2     3.987167    29B1     3.987167
      47A1     4.080069    16A2     4.080071    30B2     4.268793
      30B1     4.268793    48A1     4.291387    49A1     4.441632
      17A2     4.441637    50A1     4.504004    18A2     4.769700
      51A1     4.769703    31B2     4.796517    31B1     4.796517
      32B2     5.154574    32B1     5.154574    52A1     5.193641
      53A1     5.723997    33B2     6.139750    33B1     6.139750
      54A1     7.541820    55A1     8.765465    19A2     8.765502
      34B2     8.957635    34B1     8.957635    56A1     9.298048
      20A2    10.248598    57A1    10.248945    35B1    10.341934
      35B2    10.341934    36B2    10.467777    36B1    10.467777
      37B2    10.527446    37B1    10.527446    58A1    10.537628
      21A2    10.537648    59A1    10.662874    60A1    11.289231
      38B1    11.447815    38B2    11.447815    22A2    11.586328
      61A1    11.586340    39B2    12.034715    39B1    12.034715
      62A1    12.276275    63A1    12.387964    23A2    12.388089
      40B2    12.778501    40B1    12.778501    64A1    13.305686
      65A1    20.535173    66A1    41.457104

    Final Occupation by Irrep:
             A1    A2    B1    B2
    DOCC [     7,    0,    2,    2 ]
    SOCC [     0,    0,    1,    1 ]

  @DF-UKS Final Energy:  -473.33383245461044

   => Energetics <=

    Nuclear Repulsion Energy =             45.9266362753617017
    One-Electron Energy =                -743.9319429181537089
    Two-Electron Energy =                 250.0552624903706089
    DFT Exchange-Correlation Energy =     -25.4846045004378006
    Empirical Dispersion Energy =           0.0000000000000000
    VV10 Nonlocal Energy =                  0.1008161982487713
    Total Energy =                       -473.3338324546103877

  UHF NO Occupations:
  HONO-2 :    2 B1 1.9977907
  HONO-1 :    3 B1 1.0000000
  HONO-0 :    3 B2 1.0000000
  LUNO+0 :    4 B1 0.0022093
  LUNO+1 :    4 B2 0.0022093
  LUNO+2 :    8 A1 0.0011096
  LUNO+3 :    9 A1 0.0002446

Computation Completed

Properties will be evaluated at   0.000000,   0.000000,   0.000000 [a0]

Properties computed using the SCF density matrix

  Nuclear Dipole Moment: [e a0]
     X:     0.0000      Y:     0.0000      Z:    -0.0083

  Electronic Dipole Moment: [e a0]
     X:     0.0000      Y:     0.0000      Z:    -0.6003

  Dipole Moment: [e a0]
     X:     0.0000      Y:     0.0000      Z:    -0.6085     Total:     0.6085

  Dipole Moment: [D]
     X:     0.0000      Y:     0.0000      Z:    -1.5467     Total:     1.5467

*** tstop() called on bp1-compute00066.data.bp.acrc.priv at Tue Apr 27 16:43:58 2021
Module time:
	user time   =     276.86 seconds =       4.61 minutes
	system time =      16.59 seconds =       0.28 minutes
	total time  =         12 seconds =       0.20 minutes
Total time:
	user time   =    3271.69 seconds =      54.53 minutes
	system time =     171.86 seconds =       2.86 minutes
	total time  =        146 seconds =       2.43 minutes

         ----------------------------------------------------------
                                   FINDIF
                     R. A. King and Jonathon Misiewicz
         ---------------------------------------------------------

  Computing second-derivative from energies using projected,
  symmetry-adapted, cartesian coordinates.

  3 energies passed in, including the reference geometry.
    Using 3-point formula.
    Energy without displacement: -473.3338333194
    Check energies below for precision!
    0: -1 :      -473.3338327708
    0: 1  :      -473.3338324546

-------------------------------------------------------------

  ==> Harmonic Vibrational Analysis <==

  non-mass-weighted Hessian:       Symmetric? True   Hermitian? True   Lin Dep Dim?  5 (0)
  projection of translations (True) and rotations (True) removed 5 degrees of freedom (5)
  total projector:                 Symmetric? True   Hermitian? True   Lin Dep Dim?  5 (5)
  mass-weighted Hessian:           Symmetric? True   Hermitian? True   Lin Dep Dim?  5 (0)
  pre-proj  low-frequency mode:    0.0000  [cm^-1]
  pre-proj  low-frequency mode:    0.0000  [cm^-1]
  pre-proj  low-frequency mode:    0.0000  [cm^-1]
  pre-proj  low-frequency mode:    0.0000  [cm^-1]
  pre-proj  low-frequency mode:    0.0000  [cm^-1]
  pre-proj  all modes:['0.0000' '0.0000' '0.0000' '0.0000' '0.0000' '1222.2490']
  projected mass-weighted Hessian: Symmetric? True   Hermitian? True   Lin Dep Dim?  5 (5)
  post-proj low-frequency mode:    0.0000i [cm^-1] (TR)
  post-proj low-frequency mode:    0.0000  [cm^-1] (TR)
  post-proj low-frequency mode:    0.0000  [cm^-1] (TR)
  post-proj low-frequency mode:    0.0000  [cm^-1] (TR)
  post-proj low-frequency mode:    0.0000  [cm^-1] (TR)
  post-proj  all modes:['0.0000i' '0.0000' '0.0000' '0.0000' '0.0000' '1222.2490']

  Vibration                       6
  Freq [cm^-1]                1222.2490
  Irrep                           A1
  Reduced mass [u]             19.1932
  Force const [mDyne/A]        16.8934
  Turning point v=0 [a0]        0.0716
  RMS dev v=0 [a0 u^1/2]        0.2219
  Char temp [K]               1758.5442
  ----------------------------------------------------------------------------------
      1   S                0.00  0.00 -0.45
      2   O                0.00  0.00  0.89

  ==> Thermochemistry Components <==

  Entropy, S
    Electronic S            2.183 [cal/(mol K)]        9.134 [J/(mol K)]       0.00347910 [mEh/K] (multiplicity = 3)
    Translational S        37.528 [cal/(mol K)]      157.018 [J/(mol K)]       0.05980487 [mEh/K] (mol. weight = 47.9670 [u], P = 101325.00 [Pa])
    Rotational S           13.223 [cal/(mol K)]       55.323 [J/(mol K)]       0.02107140 [mEh/K] (symmetry no. = 1)
    Vibrational S           0.038 [cal/(mol K)]        0.158 [J/(mol K)]       0.00006011 [mEh/K]
  Total S                  52.972 [cal/(mol K)]      221.633 [J/(mol K)]       0.08441547 [mEh/K]
  Correction S              0.000 [cal/(mol K)]        0.000 [J/(mol K)]       0.00000000 [mEh/K]

  Constant volume heat capacity, Cv
    Electronic Cv           0.000 [cal/(mol K)]        0.000 [J/(mol K)]       0.00000000 [mEh/K]
    Translational Cv        2.981 [cal/(mol K)]       12.472 [J/(mol K)]       0.00475022 [mEh/K]
    Rotational Cv           1.987 [cal/(mol K)]        8.314 [J/(mol K)]       0.00316681 [mEh/K]
    Vibrational Cv          0.191 [cal/(mol K)]        0.798 [J/(mol K)]       0.00030402 [mEh/K]
  Total Cv                  5.159 [cal/(mol K)]       21.584 [J/(mol K)]       0.00822104 [mEh/K]
  Correction Cv             0.000 [cal/(mol K)]        0.000 [J/(mol K)]       0.00000000 [mEh/K]

  Constant pressure heat capacity, Cp
    Electronic Cp           0.000 [cal/(mol K)]        0.000 [J/(mol K)]       0.00000000 [mEh/K]
    Translational Cp        4.968 [cal/(mol K)]       20.786 [J/(mol K)]       0.00791703 [mEh/K]
    Rotational Cp           1.987 [cal/(mol K)]        8.314 [J/(mol K)]       0.00316681 [mEh/K]
    Vibrational Cp          0.191 [cal/(mol K)]        0.798 [J/(mol K)]       0.00030402 [mEh/K]
  Total Cp                  7.146 [cal/(mol K)]       29.899 [J/(mol K)]       0.01138785 [mEh/K]
  Correction Cp             0.000 [cal/(mol K)]        0.000 [J/(mol K)]       0.00000000 [mEh/K]

  ==> Thermochemistry Energy Analysis <==

  Raw electronic energy, E0
  Total E0, Electronic energy at well bottom at 0 [K]                 -473.33383332 [Eh]

  Zero-point energy, ZPE_vib = Sum_i nu_i / 2
    Electronic ZPE          0.000 [kcal/mol]        0.000 [kJ/mol]       0.00000000 [Eh]
    Translational ZPE       0.000 [kcal/mol]        0.000 [kJ/mol]       0.00000000 [Eh]
    Rotational ZPE          0.000 [kcal/mol]        0.000 [kJ/mol]       0.00000000 [Eh]
    Vibrational ZPE         1.747 [kcal/mol]        7.311 [kJ/mol]       0.00278449 [Eh]         611.124 [cm^-1]
  Correction ZPE            1.747 [kcal/mol]        7.311 [kJ/mol]       0.00278449 [Eh]         611.124 [cm^-1]
  Total ZPE, Electronic energy at 0 [K]                               -473.33104883 [Eh]

  Thermal Energy, E (includes ZPE)
    Electronic E            0.000 [kcal/mol]        0.000 [kJ/mol]       0.00000000 [Eh]
    Translational E         0.889 [kcal/mol]        3.718 [kJ/mol]       0.00141628 [Eh]
    Rotational E            0.592 [kcal/mol]        2.479 [kJ/mol]       0.00094418 [Eh]
    Vibrational E           1.757 [kcal/mol]        7.351 [kJ/mol]       0.00279981 [Eh]
  Correction E              3.238 [kcal/mol]       13.548 [kJ/mol]       0.00516028 [Eh]
  Total E, Electronic energy at  298.15 [K]                           -473.32867304 [Eh]

  Enthalpy, H_trans = E_trans + k_B * T
    Electronic H            0.000 [kcal/mol]        0.000 [kJ/mol]       0.00000000 [Eh]
    Translational H         1.481 [kcal/mol]        6.197 [kJ/mol]       0.00236046 [Eh]
    Rotational H            0.592 [kcal/mol]        2.479 [kJ/mol]       0.00094418 [Eh]
    Vibrational H           1.757 [kcal/mol]        7.351 [kJ/mol]       0.00279981 [Eh]
  Correction H              3.831 [kcal/mol]       16.027 [kJ/mol]       0.00610446 [Eh]
  Total H, Enthalpy at  298.15 [K]                                    -473.32772886 [Eh]

  Gibbs free energy, G = H - T * S
    Electronic G           -0.651 [kcal/mol]       -2.723 [kJ/mol]      -0.00103729 [Eh]
    Translational G        -9.708 [kcal/mol]      -40.617 [kJ/mol]      -0.01547036 [Eh]
    Rotational G           -3.350 [kcal/mol]      -14.016 [kJ/mol]      -0.00533825 [Eh]
    Vibrational G           1.746 [kcal/mol]        7.304 [kJ/mol]       0.00278189 [Eh]
  Correction G            -11.963 [kcal/mol]      -50.053 [kJ/mol]      -0.01906401 [Eh]
  Total G, Free enthalpy at  298.15 [K]                               -473.35289733 [Eh]

    Psi4 stopped on: Tuesday, 27 April 2021 04:43PM
    Psi4 wall time for execution: 0:02:27.19

*** Psi4 exiting successfully. Buy a developer a beer!
