                               Psi4 1.3.2 release

  ==> Input File <==

--------------------------------------------------------------------------
memory 144 GB

molecule {
0 1
B 0.0000000000 0.0000000000 0.0000000000
H 0.0000000000 0.0000000000 1.1899000000
H 1.0304836280 0.0000000000 -0.5949500000
H -1.0304836280 -0.0000000000 -0.5949500000
}

set dynamic_level 1
set basis cc-pV(Q+d)Z

optimize("wB97M-V")
frequencies("wB97M-V")
--------------------------------------------------------------------------

    Molecular point group: c2v
  Charge       = 0
  Multiplicity = 1
  Basis Set: CC-PV(Q+D)Z
    Blend: CC-PV(Q+D)Z
  Basis Set: (CC-PV(Q+D)Z AUX)
    Blend: CC-PVQZ-JKFIT
  @DF-RKS Final Energy:   -26.58555515260806
    Total Energy =                        -26.5855551526080554
    Molecular point group: c2v
  Basis Set: CC-PV(Q+D)Z
    Blend: CC-PV(Q+D)Z
  Basis Set: (CC-PV(Q+D)Z AUX)
    Blend: CC-PVQZ-JKFIT
  @DF-RKS Final Energy:   -26.58555300107978
    Total Energy =                        -26.5855530010797807
  Basis Set: CC-PV(Q+D)Z
    Blend: CC-PV(Q+D)Z
  Basis Set: (CC-PV(Q+D)Z AUX)
    Blend: CC-PVQZ-JKFIT
  @DF-RKS Final Energy:   -26.58555299593562
    Total Energy =                        -26.5855529959356218
  Basis Set: CC-PV(Q+D)Z
    Blend: CC-PV(Q+D)Z
  Basis Set: (CC-PV(Q+D)Z AUX)
    Blend: CC-PVQZ-JKFIT
  @DF-RKS Final Energy:   -26.58556588246739
    Total Energy =                        -26.5855658824673924
  @DF-RKS Final Energy:   -26.58553940110018
    Total Energy =                        -26.5855394011001778
  @DF-RKS Final Energy:   -26.58556589699113
    Total Energy =                        -26.5855658969911275
  @DF-RKS Final Energy:   -26.58553938665147
    Total Energy =                        -26.5855393866514689
  @DF-RKS Final Energy:   -26.58558334565911
    Total Energy =                        -26.5855833456591064
  @DF-RKS Final Energy:   -26.58558114995444
    Total Energy =                        -26.5855811499544465
  @DF-RKS Final Energy:   -26.58558115408122
    Total Energy =                        -26.5855811540812219
  @DF-RKS Final Energy:   -26.58558089554698
    Total Energy =                        -26.5855808955469826
  @DF-RKS Final Energy:   -26.58558067363981
    Total Energy =                        -26.5855806736398073
  @DF-RKS Final Energy:   -26.58558089801760
    Total Energy =                        -26.5855808980176036
  @DF-RKS Final Energy:   -26.58558067129206
    Total Energy =                        -26.5855806712920568
  **** Optimization is complete! (in 2 steps) ****
    Final optimized geometry and variables:
  @DF-RKS Final Energy:   -26.58558334573102
    Total Energy =                        -26.5855833457310133
  @DF-RKS Final Energy:   -26.58558114998167
    Total Energy =                        -26.5855811499816745
  @DF-RKS Final Energy:   -26.58558115408660
    Total Energy =                        -26.5855811540866007
  @DF-RKS Final Energy:   -26.58558089569987
    Total Energy =                        -26.5855808956998736
  @DF-RKS Final Energy:   -26.58558067362959
    Total Energy =                        -26.5855806736295861
  @DF-RKS Final Energy:   -26.58558089810955
    Total Energy =                        -26.5855808981095478
  @DF-RKS Final Energy:   -26.58558067123887
    Total Energy =                        -26.5855806712388691
  @DF-RKS Final Energy:   -26.58558334573094
    Total Energy =                        -26.5855833457309387
  @DF-RKS Final Energy:   -26.58558114998170
    Total Energy =                        -26.5855811499816959
  @DF-RKS Final Energy:   -26.58558115408669
    Total Energy =                        -26.5855811540866895
  @DF-RKS Final Energy:   -26.58558089569981
    Total Energy =                        -26.5855808956998061
  @DF-RKS Final Energy:   -26.58558067362958
    Total Energy =                        -26.5855806736295790
  @DF-RKS Final Energy:   -26.58558089810954
    Total Energy =                        -26.5855808981095336
  @DF-RKS Final Energy:   -26.58558067123901
    Total Energy =                        -26.5855806712390077
  @DF-RKS Final Energy:   -26.58558044501756
    Total Energy =                        -26.5855804450175626
  @DF-RKS Final Energy:   -26.58558066847855
    Total Energy =                        -26.5855806684785527
  @DF-RKS Final Energy:   -26.58557652989295
    Total Energy =                        -26.5855765298929505
  @DF-RKS Final Energy:   -26.58557672062842
    Total Energy =                        -26.5855767206284206
  @DF-RKS Final Energy:   -26.58557680870831
    Total Energy =                        -26.5855768087083177
  @DF-RKS Final Energy:   -26.58557724020298
    Total Energy =                        -26.5855772402029800
  @DF-RKS Final Energy:   -26.58558115190367
    Total Energy =                        -26.5855811519036678
  Basis Set: CC-PV(Q+D)Z
    Blend: CC-PV(Q+D)Z
  Basis Set: (CC-PV(Q+D)Z AUX)
    Blend: CC-PVQZ-JKFIT
  @DF-RKS Final Energy:   -26.58558098372188
    Total Energy =                        -26.5855809837218793
  Basis Set: CC-PV(Q+D)Z
    Blend: CC-PV(Q+D)Z
  Basis Set: (CC-PV(Q+D)Z AUX)
    Blend: CC-PVQZ-JKFIT
  @DF-RKS Final Energy:   -26.58557600877981
    Total Energy =                        -26.5855760087798139
  Multiplicity = 1
  Basis Set: CC-PV(Q+D)Z
    Blend: CC-PV(Q+D)Z
  Basis Set: (CC-PV(Q+D)Z AUX)
    Blend: CC-PVQZ-JKFIT
  @DF-RKS Final Energy:   -26.58557600878448
    Total Energy =                        -26.5855760087844750
    Molecular point group: cs

    Geometry (in Angstrom), charge = 0, multiplicity = 1:

       Center              X                  Y                   Z               Mass
    ------------   -----------------  -----------------  -----------------  -----------------
         B            0.000000000000    -0.000370145531     0.000000226672    11.009305360000
         H            0.000000000000     0.001347804194     1.185382619503     1.007825032230
         H            1.026565121288     0.001347800606    -0.592692547815     1.007825032230
         H           -1.026565121288     0.001347800606    -0.592692547815     1.007825032230

  Charge       = 0
  Multiplicity = 1
  Basis Set: CC-PV(Q+D)Z
    Blend: CC-PV(Q+D)Z
  Basis Set: (CC-PV(Q+D)Z AUX)
    Blend: CC-PVQZ-JKFIT

    Orbital Energies [Eh]
    ---------------------

    Doubly Occupied:

       1Ap    -6.916309     2Ap    -0.627685     3Ap    -0.453244
       1App   -0.453243

  @DF-RKS Final Energy:   -26.58558271811127

   => Energetics <=

    Nuclear Repulsion Energy =              7.4695172291853318
    One-Electron Energy =                 -49.1491184478959013
    Two-Electron Energy =                  18.4275903789133366
    DFT Exchange-Correlation Energy =      -3.3674100699023857
    Empirical Dispersion Energy =           0.0000000000000000
    VV10 Nonlocal Energy =                  0.0338381915883586
    Total Energy =                        -26.5855827181112616

  Dipole Moment: [D]
     X:     0.0000      Y:    -0.0038      Z:     0.0000     Total:     0.0038

  Vibration                       7                   8                   9
  Freq [cm^-1]                1151.8543           1201.3847           1367.6568
  Irrep                           B2                  A1                  B1
  Reduced mass [u]              1.2531              1.1072              1.1245
  Force const [mDyne/A]         0.9796              0.9415              1.2393

  Vibration                       10                  11                  12
  Freq [cm^-1]                2584.8576           2709.3540           2785.7512
  Irrep                           A1                  A1                  B1
  Reduced mass [u]              1.0078              1.1273              1.1099
  Force const [mDyne/A]         3.9674              4.8757              5.0748

  ==> Thermochemistry Components <==

  Entropy, S
    Electronic S            0.000 [cal/(mol K)]        0.000 [J/(mol K)]       0.00000000 [mEh/K] (multiplicity = 1)
    Translational S        33.864 [cal/(mol K)]      141.688 [J/(mol K)]       0.05396630 [mEh/K] (mol. weight = 14.0328 [u], P = 101325.00 [Pa])
    Rotational S           13.154 [cal/(mol K)]       55.036 [J/(mol K)]       0.02096229 [mEh/K] (symmetry no. = 2)
    Vibrational S           0.112 [cal/(mol K)]        0.470 [J/(mol K)]       0.00017897 [mEh/K]
  Total S                  47.131 [cal/(mol K)]      197.195 [J/(mol K)]       0.07510756 [mEh/K]
  Correction S              0.000 [cal/(mol K)]        0.000 [J/(mol K)]       0.00000000 [mEh/K]

  Constant volume heat capacity, Cv
    Electronic Cv           0.000 [cal/(mol K)]        0.000 [J/(mol K)]       0.00000000 [mEh/K]
    Translational Cv        2.981 [cal/(mol K)]       12.472 [J/(mol K)]       0.00475022 [mEh/K]
    Rotational Cv           2.981 [cal/(mol K)]       12.472 [J/(mol K)]       0.00475022 [mEh/K]
    Vibrational Cv          0.563 [cal/(mol K)]        2.355 [J/(mol K)]       0.00089714 [mEh/K]
  Total Cv                  6.525 [cal/(mol K)]       27.299 [J/(mol K)]       0.01039757 [mEh/K]
  Correction Cv             0.000 [cal/(mol K)]        0.000 [J/(mol K)]       0.00000000 [mEh/K]

  Constant pressure heat capacity, Cp
    Electronic Cp           0.000 [cal/(mol K)]        0.000 [J/(mol K)]       0.00000000 [mEh/K]
    Translational Cp        4.968 [cal/(mol K)]       20.786 [J/(mol K)]       0.00791703 [mEh/K]
    Rotational Cp           2.981 [cal/(mol K)]       12.472 [J/(mol K)]       0.00475022 [mEh/K]
    Vibrational Cp          0.563 [cal/(mol K)]        2.355 [J/(mol K)]       0.00089714 [mEh/K]
  Total Cp                  8.512 [cal/(mol K)]       35.613 [J/(mol K)]       0.01356438 [mEh/K]
  Correction Cp             0.000 [cal/(mol K)]        0.000 [J/(mol K)]       0.00000000 [mEh/K]

  ==> Thermochemistry Energy Analysis <==

  Raw electronic energy, E0
  Total E0, Electronic energy at well bottom at 0 [K]                  -26.58558335 [Eh]

  Zero-point energy, ZPE_vib = Sum_i nu_i / 2
    Electronic ZPE          0.000 [kcal/mol]        0.000 [kJ/mol]       0.00000000 [Eh]
    Translational ZPE       0.000 [kcal/mol]        0.000 [kJ/mol]       0.00000000 [Eh]
    Rotational ZPE          0.000 [kcal/mol]        0.000 [kJ/mol]       0.00000000 [Eh]
    Vibrational ZPE        16.870 [kcal/mol]       70.585 [kJ/mol]       0.02688433 [Eh]        5900.429 [cm^-1]
  Correction ZPE           16.870 [kcal/mol]       70.585 [kJ/mol]       0.02688433 [Eh]        5900.429 [cm^-1]
  Total ZPE, Electronic energy at 0 [K]                                -26.55869901 [Eh]

  Thermal Energy, E (includes ZPE)
    Electronic E            0.000 [kcal/mol]        0.000 [kJ/mol]       0.00000000 [Eh]
    Translational E         0.889 [kcal/mol]        3.718 [kJ/mol]       0.00141628 [Eh]
    Rotational E            0.889 [kcal/mol]        3.718 [kJ/mol]       0.00141628 [Eh]
    Vibrational E          16.899 [kcal/mol]       70.704 [kJ/mol]       0.02692989 [Eh]
  Correction E             18.676 [kcal/mol]       78.141 [kJ/mol]       0.02976244 [Eh]
  Total E, Electronic energy at  298.15 [K]                            -26.55582091 [Eh]

  Enthalpy, H_trans = E_trans + k_B * T
    Electronic H            0.000 [kcal/mol]        0.000 [kJ/mol]       0.00000000 [Eh]
    Translational H         1.481 [kcal/mol]        6.197 [kJ/mol]       0.00236046 [Eh]
    Rotational H            0.889 [kcal/mol]        3.718 [kJ/mol]       0.00141628 [Eh]
    Vibrational H          16.899 [kcal/mol]       70.704 [kJ/mol]       0.02692989 [Eh]
  Correction H             19.269 [kcal/mol]       80.620 [kJ/mol]       0.03070662 [Eh]
  Total H, Enthalpy at  298.15 [K]                                     -26.55487672 [Eh]

  Gibbs free energy, G = H - T * S
    Electronic G            0.000 [kcal/mol]        0.000 [kJ/mol]       0.00000000 [Eh]
    Translational G        -8.615 [kcal/mol]      -36.047 [kJ/mol]      -0.01372959 [Eh]
    Rotational G           -3.033 [kcal/mol]      -12.691 [kJ/mol]      -0.00483363 [Eh]
    Vibrational G          16.865 [kcal/mol]       70.564 [kJ/mol]       0.02687653 [Eh]
  Correction G              5.217 [kcal/mol]       21.827 [kJ/mol]       0.00831331 [Eh]
  Total G, Free enthalpy at  298.15 [K]                                -26.57727004 [Eh]

*** Psi4 exiting successfully. Buy a developer a beer!
