                               Psi4 1.3.2 release

  ==> Input File <==

--------------------------------------------------------------------------
memory 144 GB

molecule {
0 1
C 0.0000000000 0.0000000000 0.0000000000
C 0.0000000000 0.0000000000 1.2065000000
H 0.0000000000 -0.0000000000 2.2699000000
H -0.0000000000 -0.0000000000 -1.0634000000
}

set dynamic_level 1
set basis cc-pV(Q+d)Z

optimize("wB97M-V")
frequencies("wB97M-V")
--------------------------------------------------------------------------

    Molecular point group: d2h
  Charge       = 0
  Multiplicity = 1
  Basis Set: CC-PV(Q+D)Z
    Blend: CC-PV(Q+D)Z
  Basis Set: (CC-PV(Q+D)Z AUX)
    Blend: CC-PVQZ-JKFIT
  @DF-RKS Final Energy:   -77.32810266732383
    Total Energy =                        -77.3281026673238472
    Molecular point group: d2h
  Basis Set: CC-PV(Q+D)Z
    Blend: CC-PV(Q+D)Z
  Basis Set: (CC-PV(Q+D)Z AUX)
    Blend: CC-PVQZ-JKFIT
  @DF-RKS Final Energy:   -77.32804968815012
    Total Energy =                        -77.3280496881501165
  Basis Set: CC-PV(Q+D)Z
    Blend: CC-PV(Q+D)Z
  Basis Set: (CC-PV(Q+D)Z AUX)
    Blend: CC-PVQZ-JKFIT
  @DF-RKS Final Energy:   -77.32815030179221
    Total Energy =                        -77.3281503017921921
  Basis Set: CC-PV(Q+D)Z
    Blend: CC-PV(Q+D)Z
  Basis Set: (CC-PV(Q+D)Z AUX)
    Blend: CC-PVQZ-JKFIT
  @DF-RKS Final Energy:   -77.32810599886506
    Total Energy =                        -77.3281059988650554
  @DF-RKS Final Energy:   -77.32808923669927
    Total Energy =                        -77.3280892366992703
  @DF-RKS Final Energy:   -77.32841067924259
    Total Energy =                        -77.3284106792426087
  @DF-RKS Final Energy:   -77.32841260380540
    Total Energy =                        -77.3284126038053898
  @DF-RKS Final Energy:   -77.32840306063558
    Total Energy =                        -77.3284030606355799
  @DF-RKS Final Energy:   -77.32840609671824
    Total Energy =                        -77.3284060967182398
  @DF-RKS Final Energy:   -77.32840506606779
    Total Energy =                        -77.3284050660677877
  @DF-RKS Final Energy:   -77.32841290232324
    Total Energy =                        -77.3284129023232367
  @DF-RKS Final Energy:   -77.32840987151803
    Total Energy =                        -77.3284098715180335
  @DF-RKS Final Energy:   -77.32841026892390
    Total Energy =                        -77.3284102689239035
  @DF-RKS Final Energy:   -77.32840771787957
    Total Energy =                        -77.3284077178795570
  @DF-RKS Final Energy:   -77.32840789168645
    Total Energy =                        -77.3284078916864672
  **** Optimization is complete! (in 3 steps) ****
    Final optimized geometry and variables:
  @DF-RKS Final Energy:   -77.32841290232341
    Total Energy =                        -77.3284129023234215
  @DF-RKS Final Energy:   -77.32840987151846
    Total Energy =                        -77.3284098715184598
  @DF-RKS Final Energy:   -77.32841026892423
    Total Energy =                        -77.3284102689242303
  @DF-RKS Final Energy:   -77.32840771787967
    Total Energy =                        -77.3284077178796707
  @DF-RKS Final Energy:   -77.32840789168642
    Total Energy =                        -77.3284078916864246
  @DF-RKS Final Energy:   -77.32841290232345
    Total Energy =                        -77.3284129023234499
  @DF-RKS Final Energy:   -77.32840987151840
    Total Energy =                        -77.3284098715184030
  @DF-RKS Final Energy:   -77.32841026892433
    Total Energy =                        -77.3284102689243156
  @DF-RKS Final Energy:   -77.32840771787959
    Total Energy =                        -77.3284077178795712
  @DF-RKS Final Energy:   -77.32840789168637
    Total Energy =                        -77.3284078916863535
  @DF-RKS Final Energy:   -77.32840222572329
    Total Energy =                        -77.3284022257233090
  @DF-RKS Final Energy:   -77.32840161995735
    Total Energy =                        -77.3284016199573472
  @DF-RKS Final Energy:   -77.32841267854545
    Total Energy =                        -77.3284126785454617
  Basis Set: CC-PV(Q+D)Z
    Blend: CC-PV(Q+D)Z
  Basis Set: (CC-PV(Q+D)Z AUX)
    Blend: CC-PVQZ-JKFIT
  @DF-RKS Final Energy:   -77.32841267995586
    Total Energy =                        -77.3284126799558607
  Basis Set: CC-PV(Q+D)Z
    Blend: CC-PV(Q+D)Z
  Basis Set: (CC-PV(Q+D)Z AUX)
    Blend: CC-PVQZ-JKFIT
  @DF-RKS Final Energy:   -77.32840737193651
    Total Energy =                        -77.3284073719365068
  Multiplicity = 1
  Basis Set: CC-PV(Q+D)Z
    Blend: CC-PV(Q+D)Z
  Basis Set: (CC-PV(Q+D)Z AUX)
    Blend: CC-PVQZ-JKFIT
  @DF-RKS Final Energy:   -77.32841262133347
    Total Energy =                        -77.3284126213334702
    Molecular point group: c2v

    Geometry (in Angstrom), charge = 0, multiplicity = 1:

       Center              X                  Y                   Z               Mass
    ------------   -----------------  -----------------  -----------------  -----------------
         C           -0.000150333491     0.000000000000    -0.597069080713    12.000000000000
         C           -0.000150333491     0.000000000000     0.597069080713    12.000000000000
         H            0.001789995126     0.000000000000     1.658724095871     1.007825032230
         H            0.001789995126     0.000000000000    -1.658724095871     1.007825032230

  Charge       = 0
  Multiplicity = 1
  Basis Set: CC-PV(Q+D)Z
    Blend: CC-PV(Q+D)Z
  Basis Set: (CC-PV(Q+D)Z AUX)
    Blend: CC-PVQZ-JKFIT

    Orbital Energies [Eh]
    ---------------------

    Doubly Occupied:

       1A1   -10.348567     1B2   -10.345961     2A1    -0.877945
       2B2    -0.677885     3A1    -0.603648     1B1    -0.395821
       4A1    -0.395821

  @DF-RKS Final Energy:   -77.32841262176291

   => Energetics <=

    Nuclear Repulsion Energy =             24.9091250680520346
    One-Electron Energy =                -152.1717430414795160
    Two-Electron Energy =                  57.9185635257718019
    DFT Exchange-Correlation Energy =      -8.0420730644464165
    Empirical Dispersion Energy =           0.0000000000000000
    VV10 Nonlocal Energy =                  0.0577148903391842
    Total Energy =                        -77.3284126217629080

  Dipole Moment: [D]
     X:     0.0040      Y:     0.0000      Z:    -0.0000     Total:     0.0040

  Vibration                       6                   7                   8
  Freq [cm^-1]                 685.6224            687.7933            770.1274
  Irrep                          B3g                 B2g                 B3u
  Reduced mass [u]              1.5753              1.5753              1.0848
  Force const [mDyne/A]         0.4363              0.4391              0.3791

  Vibration                       9                   10                  11
  Freq [cm^-1]                 770.7166           2089.4589           3419.2199
  Irrep                          B2u                  Ag                 B1u
  Reduced mass [u]              1.0848              3.7482              1.0848
  Force const [mDyne/A]         0.3797              9.6413              7.4724

  Vibration                       12
  Freq [cm^-1]                3520.9626
  Irrep                           Ag
  Reduced mass [u]              1.2364
  Force const [mDyne/A]         9.0312

  ==> Thermochemistry Components <==

  Entropy, S
    Electronic S            0.000 [cal/(mol K)]        0.000 [J/(mol K)]       0.00000000 [mEh/K] (multiplicity = 1)
    Translational S        35.704 [cal/(mol K)]      149.387 [J/(mol K)]       0.05689862 [mEh/K] (mol. weight = 26.0157 [u], P = 101325.00 [Pa])
    Rotational S           10.854 [cal/(mol K)]       45.415 [J/(mol K)]       0.01729756 [mEh/K] (symmetry no. = 2)
    Vibrational S           1.111 [cal/(mol K)]        4.648 [J/(mol K)]       0.00177033 [mEh/K]
  Total S                  47.670 [cal/(mol K)]      199.450 [J/(mol K)]       0.07596651 [mEh/K]
  Correction S              0.000 [cal/(mol K)]        0.000 [J/(mol K)]       0.00000000 [mEh/K]

  Constant volume heat capacity, Cv
    Electronic Cv           0.000 [cal/(mol K)]        0.000 [J/(mol K)]       0.00000000 [mEh/K]
    Translational Cv        2.981 [cal/(mol K)]       12.472 [J/(mol K)]       0.00475022 [mEh/K]
    Rotational Cv           1.987 [cal/(mol K)]        8.314 [J/(mol K)]       0.00316681 [mEh/K]
    Vibrational Cv          3.120 [cal/(mol K)]       13.053 [J/(mol K)]       0.00497161 [mEh/K]
  Total Cv                  8.088 [cal/(mol K)]       33.839 [J/(mol K)]       0.01288864 [mEh/K]
  Correction Cv             0.000 [cal/(mol K)]        0.000 [J/(mol K)]       0.00000000 [mEh/K]

  Constant pressure heat capacity, Cp
    Electronic Cp           0.000 [cal/(mol K)]        0.000 [J/(mol K)]       0.00000000 [mEh/K]
    Translational Cp        4.968 [cal/(mol K)]       20.786 [J/(mol K)]       0.00791703 [mEh/K]
    Rotational Cp           1.987 [cal/(mol K)]        8.314 [J/(mol K)]       0.00316681 [mEh/K]
    Vibrational Cp          3.120 [cal/(mol K)]       13.053 [J/(mol K)]       0.00497161 [mEh/K]
  Total Cp                 10.075 [cal/(mol K)]       42.154 [J/(mol K)]       0.01605545 [mEh/K]
  Correction Cp             0.000 [cal/(mol K)]        0.000 [J/(mol K)]       0.00000000 [mEh/K]

  ==> Thermochemistry Energy Analysis <==

  Raw electronic energy, E0
  Total E0, Electronic energy at well bottom at 0 [K]                  -77.32841290 [Eh]

  Zero-point energy, ZPE_vib = Sum_i nu_i / 2
    Electronic ZPE          0.000 [kcal/mol]        0.000 [kJ/mol]       0.00000000 [Eh]
    Translational ZPE       0.000 [kcal/mol]        0.000 [kJ/mol]       0.00000000 [Eh]
    Rotational ZPE          0.000 [kcal/mol]        0.000 [kJ/mol]       0.00000000 [Eh]
    Vibrational ZPE        17.075 [kcal/mol]       71.440 [kJ/mol]       0.02721021 [Eh]        5971.950 [cm^-1]
  Correction ZPE           17.075 [kcal/mol]       71.440 [kJ/mol]       0.02721021 [Eh]        5971.950 [cm^-1]
  Total ZPE, Electronic energy at 0 [K]                                -77.30120269 [Eh]

  Thermal Energy, E (includes ZPE)
    Electronic E            0.000 [kcal/mol]        0.000 [kJ/mol]       0.00000000 [Eh]
    Translational E         0.889 [kcal/mol]        3.718 [kJ/mol]       0.00141628 [Eh]
    Rotational E            0.592 [kcal/mol]        2.479 [kJ/mol]       0.00094418 [Eh]
    Vibrational E          17.333 [kcal/mol]       72.520 [kJ/mol]       0.02762159 [Eh]
  Correction E             18.814 [kcal/mol]       78.718 [kJ/mol]       0.02998205 [Eh]
  Total E, Electronic energy at  298.15 [K]                            -77.29843085 [Eh]

  Enthalpy, H_trans = E_trans + k_B * T
    Electronic H            0.000 [kcal/mol]        0.000 [kJ/mol]       0.00000000 [Eh]
    Translational H         1.481 [kcal/mol]        6.197 [kJ/mol]       0.00236046 [Eh]
    Rotational H            0.592 [kcal/mol]        2.479 [kJ/mol]       0.00094418 [Eh]
    Vibrational H          17.333 [kcal/mol]       72.520 [kJ/mol]       0.02762159 [Eh]
  Correction H             19.407 [kcal/mol]       81.197 [kJ/mol]       0.03092624 [Eh]
  Total H, Enthalpy at  298.15 [K]                                     -77.29748667 [Eh]

  Gibbs free energy, G = H - T * S
    Electronic G            0.000 [kcal/mol]        0.000 [kJ/mol]       0.00000000 [Eh]
    Translational G        -9.164 [kcal/mol]      -38.342 [kJ/mol]      -0.01460386 [Eh]
    Rotational G           -2.644 [kcal/mol]      -11.061 [kJ/mol]      -0.00421308 [Eh]
    Vibrational G          17.002 [kcal/mol]       71.135 [kJ/mol]       0.02709377 [Eh]
  Correction G              5.194 [kcal/mol]       21.731 [kJ/mol]       0.00827682 [Eh]
  Total G, Free enthalpy at  298.15 [K]                                -77.32013608 [Eh]

*** Psi4 exiting successfully. Buy a developer a beer!
