                               Psi4 1.3.2 release

  ==> Input File <==

--------------------------------------------------------------------------
memory 144 GB

molecule {
0 1
C 0.0000000000 0.0000000000 0.0000000000
C 0.0000000000 0.0000000000 1.3342000000
H 0.9234041342 0.0000000000 1.8987335198
H -0.9234041342 0.0000000000 1.8987335198
H 0.9234041342 0.0000000000 -0.5645335198
H -0.9234041342 -0.0000000000 -0.5645335198
}

set dynamic_level 1
set basis cc-pV(Q+d)Z

optimize("wB97M-V")
frequencies("wB97M-V")
--------------------------------------------------------------------------

    Molecular point group: d2h
  Charge       = 0
  Multiplicity = 1
  Basis Set: CC-PV(Q+D)Z
    Blend: CC-PV(Q+D)Z
  Basis Set: (CC-PV(Q+D)Z AUX)
    Blend: CC-PVQZ-JKFIT
  @DF-RKS Final Energy:   -78.57144929417238
    Total Energy =                        -78.5714492941723819
    Molecular point group: d2h
  Basis Set: CC-PV(Q+D)Z
    Blend: CC-PV(Q+D)Z
  Basis Set: (CC-PV(Q+D)Z AUX)
    Blend: CC-PVQZ-JKFIT
  @DF-RKS Final Energy:   -78.57141961366344
    Total Energy =                        -78.5714196136634513
  Basis Set: CC-PV(Q+D)Z
    Blend: CC-PV(Q+D)Z
  Basis Set: (CC-PV(Q+D)Z AUX)
    Blend: CC-PVQZ-JKFIT
  @DF-RKS Final Energy:   -78.57147608212819
    Total Energy =                        -78.5714760821281857
  Basis Set: CC-PV(Q+D)Z
    Blend: CC-PV(Q+D)Z
  Basis Set: (CC-PV(Q+D)Z AUX)
    Blend: CC-PVQZ-JKFIT
  @DF-RKS Final Energy:   -78.57145351734832
    Total Energy =                        -78.5714535173483171
  @DF-RKS Final Energy:   -78.57143786189343
    Total Energy =                        -78.5714378618934290
  @DF-RKS Final Energy:   -78.57145186556606
    Total Energy =                        -78.5714518655660612
  @DF-RKS Final Energy:   -78.57144302977450
    Total Energy =                        -78.5714430297744997
  @DF-RKS Final Energy:   -78.57162438402581
    Total Energy =                        -78.5716243840258244
  @DF-RKS Final Energy:   -78.57162375729413
    Total Energy =                        -78.5716237572941338
  @DF-RKS Final Energy:   -78.57162192728131
    Total Energy =                        -78.5716219272813134
  @DF-RKS Final Energy:   -78.57162120673594
    Total Energy =                        -78.5716212067359407
  @DF-RKS Final Energy:   -78.57162030927975
    Total Energy =                        -78.5716203092797372
  @DF-RKS Final Energy:   -78.57161832185714
    Total Energy =                        -78.5716183218571302
  @DF-RKS Final Energy:   -78.57162672611246
    Total Energy =                        -78.5716267261124415
  @DF-RKS Final Energy:   -78.57162870690587
    Total Energy =                        -78.5716287069058694
  @DF-RKS Final Energy:   -78.57162659344174
    Total Energy =                        -78.5716265934417351
  @DF-RKS Final Energy:   -78.57162774924022
    Total Energy =                        -78.5716277492402071
  @DF-RKS Final Energy:   -78.57162539678701
    Total Energy =                        -78.5716253967870131
  @DF-RKS Final Energy:   -78.57162477892946
    Total Energy =                        -78.5716247789294471
  @DF-RKS Final Energy:   -78.57162567915654
    Total Energy =                        -78.5716256791565542
  **** Optimization is complete! (in 4 steps) ****
    Final optimized geometry and variables:
  @DF-RKS Final Energy:   -78.57162262303738
    Total Energy =                        -78.5716226230373849
  @DF-RKS Final Energy:   -78.57162457455530
    Total Energy =                        -78.5716245745552868
  @DF-RKS Final Energy:   -78.57162441691023
    Total Energy =                        -78.5716244169102254
  @DF-RKS Final Energy:   -78.57162062513579
    Total Energy =                        -78.5716206251357931
  @DF-RKS Final Energy:   -78.57162048125055
    Total Energy =                        -78.5716204812505623
  @DF-RKS Final Energy:   -78.57162742468468
    Total Energy =                        -78.5716274246846638
  @DF-RKS Final Energy:   -78.57162509275645
    Total Energy =                        -78.5716250927564346
  @DF-RKS Final Energy:   -78.57161998436699
    Total Energy =                        -78.5716199843669898
  @DF-RKS Final Energy:   -78.57161998535764
    Total Energy =                        -78.5716199853576427
  @DF-RKS Final Energy:   -78.57162860226734
    Total Energy =                        -78.5716286022673387
  @DF-RKS Final Energy:   -78.57162853607234
    Total Energy =                        -78.5716285360723390
  @DF-RKS Final Energy:   -78.57162700359888
    Total Energy =                        -78.5716270035988771
  @DF-RKS Final Energy:   -78.57162545028187
    Total Energy =                        -78.5716254502818714
  @DF-RKS Final Energy:   -78.57162668864844
    Total Energy =                        -78.5716266886484362
  @DF-RKS Final Energy:   -78.57162668845120
    Total Energy =                        -78.5716266884512038
  @DF-RKS Final Energy:   -78.57162861756944
    Total Energy =                        -78.5716286175694307
  Basis Set: CC-PV(Q+D)Z
    Blend: CC-PV(Q+D)Z
  Basis Set: (CC-PV(Q+D)Z AUX)
    Blend: CC-PVQZ-JKFIT
  @DF-RKS Final Energy:   -78.57162526270488
    Total Energy =                        -78.5716252627048846
  Basis Set: CC-PV(Q+D)Z
    Blend: CC-PV(Q+D)Z
  Basis Set: (CC-PV(Q+D)Z AUX)
    Blend: CC-PVQZ-JKFIT
  @DF-RKS Final Energy:   -78.57162757664400
    Total Energy =                        -78.5716275766440049
  Multiplicity = 1
  Basis Set: CC-PV(Q+D)Z
    Blend: CC-PV(Q+D)Z
  Basis Set: (CC-PV(Q+D)Z AUX)
    Blend: CC-PVQZ-JKFIT
  @DF-RKS Final Energy:   -78.57162780588115
    Total Energy =                        -78.5716278058811497
    Molecular point group: c2v

    Geometry (in Angstrom), charge = 0, multiplicity = 1:

       Center              X                  Y                   Z               Mass
    ------------   -----------------  -----------------  -----------------  -----------------
         C           -0.000204817217     0.000000000000    -0.660846885804    12.000000000000
         C           -0.000204817217     0.000000000000     0.660846885804    12.000000000000
         H            0.922418257705     0.000000000000     1.225675283814     1.007825032230
         H           -0.919979534185     0.000000000000     1.228310878156     1.007825032230
         H            0.922418257705     0.000000000000    -1.225675283814     1.007825032230
         H           -0.919979534185     0.000000000000    -1.228310878156     1.007825032230

  Charge       = 0
  Multiplicity = 1
  Basis Set: CC-PV(Q+D)Z
    Blend: CC-PV(Q+D)Z
  Basis Set: (CC-PV(Q+D)Z AUX)
    Blend: CC-PVQZ-JKFIT

    Orbital Energies [Eh]
    ---------------------

    Doubly Occupied:

       1A1   -10.339815     1B2   -10.338904     2A1    -0.886087
       2B2    -0.692995     3A1    -0.578595     4A1    -0.524954
       3B2    -0.452950     1B1    -0.375391

  @DF-RKS Final Energy:   -78.57162780538593

   => Energetics <=

    Nuclear Repulsion Energy =             33.5559678099100154
    One-Electron Energy =                -170.6341857921234748
    Two-Electron Energy =                  66.9026302579567869
    DFT Exchange-Correlation Energy =      -8.4609234460900637
    Empirical Dispersion Energy =           0.0000000000000000
    VV10 Nonlocal Energy =                  0.0648833649608129
    Total Energy =                        -78.5716278053859298

  Dipole Moment: [D]
     X:    -0.0006      Y:     0.0000      Z:     0.0000     Total:     0.0006

  Vibration                       7                   8                   9
  Freq [cm^-1]                 830.8501            982.6930            999.0164
  Irrep                          B3u                 B2u                 B3g
  Reduced mass [u]              1.0424              1.1607              1.5176
  Force const [mDyne/A]         0.4240              0.6604              0.8924

  Vibration                       10                  11                  12
  Freq [cm^-1]                1066.7558           1242.4027           1379.4403
  Irrep                           Au                 B2g                  Ag
  Reduced mass [u]              1.0078              1.5254              1.1781
  Force const [mDyne/A]         0.6757              1.3873              1.3208

  Vibration                       13                  14                  15
  Freq [cm^-1]                1468.1978           1711.9020           3143.7551
  Irrep                          B1u                  Ag                 B1u
  Reduced mass [u]              1.1122              3.4693              1.0475
  Force const [mDyne/A]         1.4126              5.9902              6.0996

  Vibration                       16                  17                  18
  Freq [cm^-1]                3160.9579           3218.8308           3245.5541
  Irrep                           Ag                 B2g                 B3u
  Reduced mass [u]              1.0744              1.1148              1.1181
  Force const [mDyne/A]         6.3249              6.8053              6.9390

  ==> Thermochemistry Components <==

  Entropy, S
    Electronic S            0.000 [cal/(mol K)]        0.000 [J/(mol K)]       0.00000000 [mEh/K] (multiplicity = 1)
    Translational S        35.927 [cal/(mol K)]      150.318 [J/(mol K)]       0.05725309 [mEh/K] (mol. weight = 28.0313 [u], P = 101325.00 [Pa])
    Rotational S           15.828 [cal/(mol K)]       66.224 [J/(mol K)]       0.02522330 [mEh/K] (symmetry no. = 4)
    Vibrational S           0.522 [cal/(mol K)]        2.183 [J/(mol K)]       0.00083146 [mEh/K]
  Total S                  52.276 [cal/(mol K)]      218.725 [J/(mol K)]       0.08330786 [mEh/K]
  Correction S              0.000 [cal/(mol K)]        0.000 [J/(mol K)]       0.00000000 [mEh/K]

  Constant volume heat capacity, Cv
    Electronic Cv           0.000 [cal/(mol K)]        0.000 [J/(mol K)]       0.00000000 [mEh/K]
    Translational Cv        2.981 [cal/(mol K)]       12.472 [J/(mol K)]       0.00475022 [mEh/K]
    Rotational Cv           2.981 [cal/(mol K)]       12.472 [J/(mol K)]       0.00475022 [mEh/K]
    Vibrational Cv          2.097 [cal/(mol K)]        8.774 [J/(mol K)]       0.00334195 [mEh/K]
  Total Cv                  8.059 [cal/(mol K)]       33.718 [J/(mol K)]       0.01284238 [mEh/K]
  Correction Cv             0.000 [cal/(mol K)]        0.000 [J/(mol K)]       0.00000000 [mEh/K]

  Constant pressure heat capacity, Cp
    Electronic Cp           0.000 [cal/(mol K)]        0.000 [J/(mol K)]       0.00000000 [mEh/K]
    Translational Cp        4.968 [cal/(mol K)]       20.786 [J/(mol K)]       0.00791703 [mEh/K]
    Rotational Cp           2.981 [cal/(mol K)]       12.472 [J/(mol K)]       0.00475022 [mEh/K]
    Vibrational Cp          2.097 [cal/(mol K)]        8.774 [J/(mol K)]       0.00334195 [mEh/K]
  Total Cp                 10.046 [cal/(mol K)]       42.032 [J/(mol K)]       0.01600919 [mEh/K]
  Correction Cp             0.000 [cal/(mol K)]        0.000 [J/(mol K)]       0.00000000 [mEh/K]

  ==> Thermochemistry Energy Analysis <==

  Raw electronic energy, E0
  Total E0, Electronic energy at well bottom at 0 [K]                  -78.57162907 [Eh]

  Zero-point energy, ZPE_vib = Sum_i nu_i / 2
    Electronic ZPE          0.000 [kcal/mol]        0.000 [kJ/mol]       0.00000000 [Eh]
    Translational ZPE       0.000 [kcal/mol]        0.000 [kJ/mol]       0.00000000 [Eh]
    Rotational ZPE          0.000 [kcal/mol]        0.000 [kJ/mol]       0.00000000 [Eh]
    Vibrational ZPE        32.094 [kcal/mol]      134.283 [kJ/mol]       0.05114567 [Eh]       11225.178 [cm^-1]
  Correction ZPE           32.094 [kcal/mol]      134.283 [kJ/mol]       0.05114567 [Eh]       11225.178 [cm^-1]
  Total ZPE, Electronic energy at 0 [K]                                -78.52048340 [Eh]

  Thermal Energy, E (includes ZPE)
    Electronic E            0.000 [kcal/mol]        0.000 [kJ/mol]       0.00000000 [Eh]
    Translational E         0.889 [kcal/mol]        3.718 [kJ/mol]       0.00141628 [Eh]
    Rotational E            0.889 [kcal/mol]        3.718 [kJ/mol]       0.00141628 [Eh]
    Vibrational E          32.223 [kcal/mol]      134.820 [kJ/mol]       0.05135027 [Eh]
  Correction E             34.000 [kcal/mol]      142.257 [kJ/mol]       0.05418282 [Eh]
  Total E, Electronic energy at  298.15 [K]                            -78.51744625 [Eh]

  Enthalpy, H_trans = E_trans + k_B * T
    Electronic H            0.000 [kcal/mol]        0.000 [kJ/mol]       0.00000000 [Eh]
    Translational H         1.481 [kcal/mol]        6.197 [kJ/mol]       0.00236046 [Eh]
    Rotational H            0.889 [kcal/mol]        3.718 [kJ/mol]       0.00141628 [Eh]
    Vibrational H          32.223 [kcal/mol]      134.820 [kJ/mol]       0.05135027 [Eh]
  Correction H             34.593 [kcal/mol]      144.736 [kJ/mol]       0.05512701 [Eh]
  Total H, Enthalpy at  298.15 [K]                                     -78.51650207 [Eh]

  Gibbs free energy, G = H - T * S
    Electronic G            0.000 [kcal/mol]        0.000 [kJ/mol]       0.00000000 [Eh]
    Translational G        -9.230 [kcal/mol]      -38.620 [kJ/mol]      -0.01470955 [Eh]
    Rotational G           -3.830 [kcal/mol]      -16.026 [kJ/mol]      -0.00610405 [Eh]
    Vibrational G          32.067 [kcal/mol]      134.169 [kJ/mol]       0.05110237 [Eh]
  Correction G             19.006 [kcal/mol]       79.523 [kJ/mol]       0.03028877 [Eh]
  Total G, Free enthalpy at  298.15 [K]                                -78.54134031 [Eh]

*** Psi4 exiting successfully. Buy a developer a beer!
