                               Psi4 1.3.2 release

  ==> Input File <==

--------------------------------------------------------------------------
memory 144 GB

molecule {
0 1
C 0.0000000000 0.0000000000 0.0000000000
Cl 0.0000000000 0.0000000000 1.7182578700
Cl 1.6229007750 0.0000000000 -0.5644494507
}

set dynamic_level 1
set basis cc-pV(Q+d)Z

optimize("wB97M-V")
frequencies("wB97M-V")
--------------------------------------------------------------------------

    Molecular point group: c2v
  Charge       = 0
  Multiplicity = 1
  Basis Set: CC-PV(Q+D)Z
    Blend: CC-PV(Q+D)Z
  Basis Set: (CC-PV(Q+D)Z AUX)
    Blend: CC-PVQZ-JKFIT
  @DF-RKS Final Energy:  -958.40712176691181
    Total Energy =                       -958.4071217669119278
    Molecular point group: c2v
  Basis Set: CC-PV(Q+D)Z
    Blend: CC-PV(Q+D)Z
  Basis Set: (CC-PV(Q+D)Z AUX)
    Blend: CC-PVQZ-JKFIT
  @DF-RKS Final Energy:  -958.40711608573929
    Total Energy =                       -958.4071160857394034
  Basis Set: CC-PV(Q+D)Z
    Blend: CC-PV(Q+D)Z
  Basis Set: (CC-PV(Q+D)Z AUX)
    Blend: CC-PVQZ-JKFIT
  @DF-RKS Final Energy:  -958.40712697967467
    Total Energy =                       -958.4071269796746719
  Basis Set: CC-PV(Q+D)Z
    Blend: CC-PV(Q+D)Z
  Basis Set: (CC-PV(Q+D)Z AUX)
    Blend: CC-PVQZ-JKFIT
  @DF-RKS Final Energy:  -958.40712628815538
    Total Energy =                       -958.4071262881553821
  @DF-RKS Final Energy:  -958.40711709235472
    Total Energy =                       -958.4071170923548380
  @DF-RKS Final Energy:  -958.40717883342450
    Total Energy =                       -958.4071788334244957
  @DF-RKS Final Energy:  -958.40717537793375
    Total Energy =                       -958.4071753779337541
  @DF-RKS Final Energy:  -958.40718180817851
    Total Energy =                       -958.4071818081786205
  @DF-RKS Final Energy:  -958.40717867498552
    Total Energy =                       -958.4071786749855164
  @DF-RKS Final Energy:  -958.40717883018567
    Total Energy =                       -958.4071788301857850
  @DF-RKS Final Energy:  -958.40719320775838
    Total Energy =                       -958.4071932077583824
  @DF-RKS Final Energy:  -958.40719269199826
    Total Energy =                       -958.4071926919983753
  @DF-RKS Final Energy:  -958.40719324338897
    Total Energy =                       -958.4071932433889742
  @DF-RKS Final Energy:  -958.40719316603190
    Total Energy =                       -958.4071931660319024
  @DF-RKS Final Energy:  -958.40719308871223
    Total Energy =                       -958.4071930887122335
  **** Optimization is complete! (in 3 steps) ****
    Final optimized geometry and variables:
  @DF-RKS Final Energy:  -958.40719320786854
    Total Energy =                       -958.4071932078684313
  @DF-RKS Final Energy:  -958.40719269248041
    Total Energy =                       -958.4071926924804075
  @DF-RKS Final Energy:  -958.40719324336521
    Total Energy =                       -958.4071932433652137
  @DF-RKS Final Energy:  -958.40719316562991
    Total Energy =                       -958.4071931656299057
  @DF-RKS Final Energy:  -958.40719308859468
    Total Energy =                       -958.4071930885946813
  @DF-RKS Final Energy:  -958.40719320786775
    Total Energy =                       -958.4071932078677492
  @DF-RKS Final Energy:  -958.40719269248143
    Total Energy =                       -958.4071926924812033
  @DF-RKS Final Energy:  -958.40719324336692
    Total Energy =                       -958.4071932433669190
  @DF-RKS Final Energy:  -958.40719316563104
    Total Energy =                       -958.4071931656311563
  Basis Set: CC-PV(Q+D)Z
    Blend: CC-PV(Q+D)Z
  Basis Set: (CC-PV(Q+D)Z AUX)
    Blend: CC-PVQZ-JKFIT
  @DF-RKS Final Energy:  -958.40719308859468
    Total Energy =                       -958.4071930885946813
  Basis Set: CC-PV(Q+D)Z
    Blend: CC-PV(Q+D)Z
  Basis Set: (CC-PV(Q+D)Z AUX)
    Blend: CC-PVQZ-JKFIT
  @DF-RKS Final Energy:  -958.40719325714497
    Total Energy =                       -958.4071932571448542
  Multiplicity = 1
  Basis Set: CC-PV(Q+D)Z
    Blend: CC-PV(Q+D)Z
  Basis Set: (CC-PV(Q+D)Z AUX)
    Blend: CC-PVQZ-JKFIT
  @DF-RKS Final Energy:  -958.40719278282427
    Total Energy =                       -958.4071927828241542
    Molecular point group: cs

    Geometry (in Angstrom), charge = 0, multiplicity = 1:

       Center              X                  Y                   Z               Mass
    ------------   -----------------  -----------------  -----------------  -----------------
         C            0.000000000000    -0.000680782878    -0.847072260570    12.000000000000
         CL           0.000000000000     1.392364248709     0.145424994083    34.968852682000
         CL           0.000000000000    -1.392130629534     0.145258466976    34.968852682000

  Charge       = 0
  Multiplicity = 1
  Basis Set: CC-PV(Q+D)Z
    Blend: CC-PV(Q+D)Z
  Basis Set: (CC-PV(Q+D)Z AUX)
    Blend: CC-PVQZ-JKFIT

    Orbital Energies [Eh]
    ---------------------

    Doubly Occupied:

       1Ap  -101.936700     2Ap  -101.936424     3Ap   -10.500153
       4Ap    -9.695061     5Ap    -9.694767     6Ap    -7.398717
       7Ap    -7.398429     1App   -7.394263     2App   -7.393964
       8Ap    -7.391074     9Ap    -7.390784    10Ap    -1.065647
      11Ap    -0.982521    12Ap    -0.722646    13Ap    -0.571890
      14Ap    -0.528885     3App   -0.524963     4App   -0.450837
      15Ap    -0.430022    16Ap    -0.360609

  @DF-RKS Final Energy:  -958.40719291529012

   => Energetics <=

    Nuclear Repulsion Energy =            118.0620088680970241
    One-Electron Energy =               -1555.7192590137719890
    Two-Electron Energy =                 526.5375314315484729
    DFT Exchange-Correlation Energy =     -47.4527737450559286
    Empirical Dispersion Energy =           0.0000000000000000
    VV10 Nonlocal Energy =                  0.1652995438923600
    Total Energy =                       -958.4071929152898974

  Dipole Moment: [D]
     X:     0.0000      Y:    -0.0079      Z:     1.1301     Total:     1.1302

  Vibration                       7                   8                   9
  Freq [cm^-1]                 346.1808            747.0646            786.4477
  Irrep                           A1                  A1                  B2
  Reduced mass [u]             29.3945             14.3074             13.8732
  Force const [mDyne/A]         2.0755              4.7046              5.0555

  ==> Thermochemistry Components <==

  Entropy, S
    Electronic S            0.000 [cal/(mol K)]        0.000 [J/(mol K)]       0.00000000 [mEh/K] (multiplicity = 1)
    Translational S        39.124 [cal/(mol K)]      163.696 [J/(mol K)]       0.06234835 [mEh/K] (mol. weight = 81.9377 [u], P = 101325.00 [Pa])
    Rotational S           22.344 [cal/(mol K)]       93.485 [J/(mol K)]       0.03560670 [mEh/K] (symmetry no. = 2)
    Vibrational S           1.657 [cal/(mol K)]        6.933 [J/(mol K)]       0.00264075 [mEh/K]
  Total S                  63.125 [cal/(mol K)]      264.114 [J/(mol K)]       0.10059580 [mEh/K]
  Correction S              0.000 [cal/(mol K)]        0.000 [J/(mol K)]       0.00000000 [mEh/K]

  Constant volume heat capacity, Cv
    Electronic Cv           0.000 [cal/(mol K)]        0.000 [J/(mol K)]       0.00000000 [mEh/K]
    Translational Cv        2.981 [cal/(mol K)]       12.472 [J/(mol K)]       0.00475022 [mEh/K]
    Rotational Cv           2.981 [cal/(mol K)]       12.472 [J/(mol K)]       0.00475022 [mEh/K]
    Vibrational Cv          2.998 [cal/(mol K)]       12.545 [J/(mol K)]       0.00477805 [mEh/K]
  Total Cv                  8.960 [cal/(mol K)]       37.488 [J/(mol K)]       0.01427849 [mEh/K]
  Correction Cv             0.000 [cal/(mol K)]        0.000 [J/(mol K)]       0.00000000 [mEh/K]

  Constant pressure heat capacity, Cp
    Electronic Cp           0.000 [cal/(mol K)]        0.000 [J/(mol K)]       0.00000000 [mEh/K]
    Translational Cp        4.968 [cal/(mol K)]       20.786 [J/(mol K)]       0.00791703 [mEh/K]
    Rotational Cp           2.981 [cal/(mol K)]       12.472 [J/(mol K)]       0.00475022 [mEh/K]
    Vibrational Cp          2.998 [cal/(mol K)]       12.545 [J/(mol K)]       0.00477805 [mEh/K]
  Total Cp                 10.947 [cal/(mol K)]       45.803 [J/(mol K)]       0.01744530 [mEh/K]
  Correction Cp             0.000 [cal/(mol K)]        0.000 [J/(mol K)]       0.00000000 [mEh/K]

  ==> Thermochemistry Energy Analysis <==

  Raw electronic energy, E0
  Total E0, Electronic energy at well bottom at 0 [K]                 -958.40719321 [Eh]

  Zero-point energy, ZPE_vib = Sum_i nu_i / 2
    Electronic ZPE          0.000 [kcal/mol]        0.000 [kJ/mol]       0.00000000 [Eh]
    Translational ZPE       0.000 [kcal/mol]        0.000 [kJ/mol]       0.00000000 [Eh]
    Rotational ZPE          0.000 [kcal/mol]        0.000 [kJ/mol]       0.00000000 [Eh]
    Vibrational ZPE         2.687 [kcal/mol]       11.243 [kJ/mol]       0.00428226 [Eh]         939.847 [cm^-1]
  Correction ZPE            2.687 [kcal/mol]       11.243 [kJ/mol]       0.00428226 [Eh]         939.847 [cm^-1]
  Total ZPE, Electronic energy at 0 [K]                               -958.40291095 [Eh]

  Thermal Energy, E (includes ZPE)
    Electronic E            0.000 [kcal/mol]        0.000 [kJ/mol]       0.00000000 [Eh]
    Translational E         0.889 [kcal/mol]        3.718 [kJ/mol]       0.00141628 [Eh]
    Rotational E            0.889 [kcal/mol]        3.718 [kJ/mol]       0.00141628 [Eh]
    Vibrational E           3.028 [kcal/mol]       12.669 [kJ/mol]       0.00482531 [Eh]
  Correction E              4.805 [kcal/mol]       20.106 [kJ/mol]       0.00765786 [Eh]
  Total E, Electronic energy at  298.15 [K]                           -958.39953534 [Eh]

  Enthalpy, H_trans = E_trans + k_B * T
    Electronic H            0.000 [kcal/mol]        0.000 [kJ/mol]       0.00000000 [Eh]
    Translational H         1.481 [kcal/mol]        6.197 [kJ/mol]       0.00236046 [Eh]
    Rotational H            0.889 [kcal/mol]        3.718 [kJ/mol]       0.00141628 [Eh]
    Vibrational H           3.028 [kcal/mol]       12.669 [kJ/mol]       0.00482531 [Eh]
  Correction H              5.398 [kcal/mol]       22.585 [kJ/mol]       0.00860205 [Eh]
  Total H, Enthalpy at  298.15 [K]                                    -958.39859116 [Eh]

  Gibbs free energy, G = H - T * S
    Electronic G            0.000 [kcal/mol]        0.000 [kJ/mol]       0.00000000 [Eh]
    Translational G       -10.184 [kcal/mol]      -42.608 [kJ/mol]      -0.01622870 [Eh]
    Rotational G           -5.773 [kcal/mol]      -24.154 [kJ/mol]      -0.00919986 [Eh]
    Vibrational G           2.534 [kcal/mol]       10.602 [kJ/mol]       0.00403797 [Eh]
  Correction G            -13.423 [kcal/mol]      -56.161 [kJ/mol]      -0.02139059 [Eh]
  Total G, Free enthalpy at  298.15 [K]                               -958.42858380 [Eh]

*** Psi4 exiting successfully. Buy a developer a beer!
