                               Psi4 1.3.2 release

  ==> Input File <==

--------------------------------------------------------------------------
memory 144 GB

molecule {
0 1
C 0.0000000000 0.0000000000 0.0000000000
F 0.0000000000 0.0000000000 1.2971000000
F 1.2538059978 0.0000000000 -0.3323235319
}

set dynamic_level 1
set basis cc-pV(Q+d)Z

optimize("wB97M-V")
frequencies("wB97M-V")
--------------------------------------------------------------------------

    Molecular point group: c2v
  Charge       = 0
  Multiplicity = 1
  Basis Set: CC-PV(Q+D)Z
    Blend: CC-PV(Q+D)Z
  Basis Set: (CC-PV(Q+D)Z AUX)
    Blend: CC-PVQZ-JKFIT
  @DF-RKS Final Energy:  -237.76016541027565
    Total Energy =                       -237.7601654102756470
    Molecular point group: c2v
  Basis Set: CC-PV(Q+D)Z
    Blend: CC-PV(Q+D)Z
  Basis Set: (CC-PV(Q+D)Z AUX)
    Blend: CC-PVQZ-JKFIT
  @DF-RKS Final Energy:  -237.76017134859273
    Total Energy =                       -237.7601713485927348
  Basis Set: CC-PV(Q+D)Z
    Blend: CC-PV(Q+D)Z
  Basis Set: (CC-PV(Q+D)Z AUX)
    Blend: CC-PVQZ-JKFIT
  @DF-RKS Final Energy:  -237.76015813809533
    Total Energy =                       -237.7601581380953633
  Basis Set: CC-PV(Q+D)Z
    Blend: CC-PV(Q+D)Z
  Basis Set: (CC-PV(Q+D)Z AUX)
    Blend: CC-PVQZ-JKFIT
  @DF-RKS Final Energy:  -237.76016331122105
    Total Energy =                       -237.7601633112210493
  @DF-RKS Final Energy:  -237.76016690259536
    Total Energy =                       -237.7601669025953584
  @DF-RKS Final Energy:  -237.76017586699618
    Total Energy =                       -237.7601758669961782
  @DF-RKS Final Energy:  -237.76017540459540
    Total Energy =                       -237.7601754045954010
  @DF-RKS Final Energy:  -237.76017500237757
    Total Energy =                       -237.7601750023775367
  @DF-RKS Final Energy:  -237.76017308081072
    Total Energy =                       -237.7601730808107163
  @DF-RKS Final Energy:  -237.76017804563241
    Total Energy =                       -237.7601780456324150
  @DF-RKS Final Energy:  -237.76018168877738
    Total Energy =                       -237.7601816887774078
  @DF-RKS Final Energy:  -237.76018069893942
    Total Energy =                       -237.7601806989394220
  @DF-RKS Final Energy:  -237.76018135945262
    Total Energy =                       -237.7601813594526163
  @DF-RKS Final Energy:  -237.76018180811195
    Total Energy =                       -237.7601818081119518
  @DF-RKS Final Energy:  -237.76018096962940
    Total Energy =                       -237.7601809696294310
  **** Optimization is complete! (in 3 steps) ****
    Final optimized geometry and variables:
  @DF-RKS Final Energy:  -237.76018168877732
    Total Energy =                       -237.7601816887773225
  @DF-RKS Final Energy:  -237.76018069897992
    Total Energy =                       -237.7601806989798945
  @DF-RKS Final Energy:  -237.76018135945259
    Total Energy =                       -237.7601813594525879
  @DF-RKS Final Energy:  -237.76018180811175
    Total Energy =                       -237.7601818081117528
  @DF-RKS Final Energy:  -237.76018096962926
    Total Energy =                       -237.7601809696292889
  @DF-RKS Final Energy:  -237.76018168877732
    Total Energy =                       -237.7601816887773509
  @DF-RKS Final Energy:  -237.76018069897987
    Total Energy =                       -237.7601806989798661
  @DF-RKS Final Energy:  -237.76018135945273
    Total Energy =                       -237.7601813594527869
  @DF-RKS Final Energy:  -237.76018180811175
    Total Energy =                       -237.7601818081117528
  Basis Set: CC-PV(Q+D)Z
    Blend: CC-PV(Q+D)Z
  Basis Set: (CC-PV(Q+D)Z AUX)
    Blend: CC-PVQZ-JKFIT
  @DF-RKS Final Energy:  -237.76018096962937
    Total Energy =                       -237.7601809696293742
  Basis Set: CC-PV(Q+D)Z
    Blend: CC-PV(Q+D)Z
  Basis Set: (CC-PV(Q+D)Z AUX)
    Blend: CC-PVQZ-JKFIT
  @DF-RKS Final Energy:  -237.76018102356079
    Total Energy =                       -237.7601810235607900
  Multiplicity = 1
  Basis Set: CC-PV(Q+D)Z
    Blend: CC-PV(Q+D)Z
  Basis Set: (CC-PV(Q+D)Z AUX)
    Blend: CC-PVQZ-JKFIT
  @DF-RKS Final Energy:  -237.76018120074008
    Total Energy =                       -237.7601812007400497
    Molecular point group: cs

    Geometry (in Angstrom), charge = 0, multiplicity = 1:

       Center              X                  Y                   Z               Mass
    ------------   -----------------  -----------------  -----------------  -----------------
         C            0.000000000000    -0.000622630114    -0.604567571082    12.000000000000
         F            0.000000000000     1.028347894857     0.191084263145    18.998403162730
         F            0.000000000000    -1.027954621732     0.190779980436    18.998403162730

  Charge       = 0
  Multiplicity = 1
  Basis Set: CC-PV(Q+D)Z
    Blend: CC-PV(Q+D)Z
  Basis Set: (CC-PV(Q+D)Z AUX)
    Blend: CC-PVQZ-JKFIT

    Orbital Energies [Eh]
    ---------------------

    Doubly Occupied:

       1Ap   -24.980993     2Ap   -24.980342     3Ap   -10.549379
       4Ap    -1.477455     5Ap    -1.401536     6Ap    -0.831961
       7Ap    -0.719720     1App   -0.676639     8Ap    -0.671919
       2App   -0.594795     9Ap    -0.569406    10Ap    -0.414682

  @DF-RKS Final Energy:  -237.76018107936994

   => Energetics <=

    Nuclear Repulsion Energy =             64.8084029508807475
    One-Electron Energy =                -457.3298756390806830
    Two-Electron Energy =                 173.9052445303554748
    DFT Exchange-Correlation Energy =     -19.2445713102839022
    Empirical Dispersion Energy =           0.0000000000000000
    VV10 Nonlocal Energy =                  0.1006183887584241
    Total Energy =                       -237.7601810793699428

  Dipole Moment: [D]
     X:     0.0000      Y:    -0.0079      Z:     0.6043     Total:     0.6043

  Vibration                       7                   8                   9
  Freq [cm^-1]                 677.4440           1135.0190           1252.7387
  Irrep                           A1                  B2                  A1
  Reduced mass [u]             17.7576             13.6921             13.8336
  Force const [mDyne/A]         4.8015             10.3927             12.7911

  ==> Thermochemistry Components <==

  Entropy, S
    Electronic S            0.000 [cal/(mol K)]        0.000 [J/(mol K)]       0.00000000 [mEh/K] (multiplicity = 1)
    Translational S        37.652 [cal/(mol K)]      157.535 [J/(mol K)]       0.06000175 [mEh/K] (mol. weight = 49.9968 [u], P = 101325.00 [Pa])
    Rotational S           19.433 [cal/(mol K)]       81.310 [J/(mol K)]       0.03096922 [mEh/K] (symmetry no. = 2)
    Vibrational S           0.421 [cal/(mol K)]        1.762 [J/(mol K)]       0.00067126 [mEh/K]
  Total S                  57.506 [cal/(mol K)]      240.607 [J/(mol K)]       0.09164223 [mEh/K]
  Correction S              0.000 [cal/(mol K)]        0.000 [J/(mol K)]       0.00000000 [mEh/K]

  Constant volume heat capacity, Cv
    Electronic Cv           0.000 [cal/(mol K)]        0.000 [J/(mol K)]       0.00000000 [mEh/K]
    Translational Cv        2.981 [cal/(mol K)]       12.472 [J/(mol K)]       0.00475022 [mEh/K]
    Rotational Cv           2.981 [cal/(mol K)]       12.472 [J/(mol K)]       0.00475022 [mEh/K]
    Vibrational Cv          1.297 [cal/(mol K)]        5.428 [J/(mol K)]       0.00206727 [mEh/K]
  Total Cv                  7.259 [cal/(mol K)]       30.371 [J/(mol K)]       0.01156770 [mEh/K]
  Correction Cv             0.000 [cal/(mol K)]        0.000 [J/(mol K)]       0.00000000 [mEh/K]

  Constant pressure heat capacity, Cp
    Electronic Cp           0.000 [cal/(mol K)]        0.000 [J/(mol K)]       0.00000000 [mEh/K]
    Translational Cp        4.968 [cal/(mol K)]       20.786 [J/(mol K)]       0.00791703 [mEh/K]
    Rotational Cp           2.981 [cal/(mol K)]       12.472 [J/(mol K)]       0.00475022 [mEh/K]
    Vibrational Cp          1.297 [cal/(mol K)]        5.428 [J/(mol K)]       0.00206727 [mEh/K]
  Total Cp                  9.246 [cal/(mol K)]       38.685 [J/(mol K)]       0.01473451 [mEh/K]
  Correction Cp             0.000 [cal/(mol K)]        0.000 [J/(mol K)]       0.00000000 [mEh/K]

  ==> Thermochemistry Energy Analysis <==

  Raw electronic energy, E0
  Total E0, Electronic energy at well bottom at 0 [K]                 -237.76018169 [Eh]

  Zero-point energy, ZPE_vib = Sum_i nu_i / 2
    Electronic ZPE          0.000 [kcal/mol]        0.000 [kJ/mol]       0.00000000 [Eh]
    Translational ZPE       0.000 [kcal/mol]        0.000 [kJ/mol]       0.00000000 [Eh]
    Rotational ZPE          0.000 [kcal/mol]        0.000 [kJ/mol]       0.00000000 [Eh]
    Vibrational ZPE         4.382 [kcal/mol]       18.334 [kJ/mol]       0.00698304 [Eh]        1532.601 [cm^-1]
  Correction ZPE            4.382 [kcal/mol]       18.334 [kJ/mol]       0.00698304 [Eh]        1532.601 [cm^-1]
  Total ZPE, Electronic energy at 0 [K]                               -237.75319865 [Eh]

  Thermal Energy, E (includes ZPE)
    Electronic E            0.000 [kcal/mol]        0.000 [kJ/mol]       0.00000000 [Eh]
    Translational E         0.889 [kcal/mol]        3.718 [kJ/mol]       0.00141628 [Eh]
    Rotational E            0.889 [kcal/mol]        3.718 [kJ/mol]       0.00141628 [Eh]
    Vibrational E           4.481 [kcal/mol]       18.747 [kJ/mol]       0.00714037 [Eh]
  Correction E              6.258 [kcal/mol]       26.184 [kJ/mol]       0.00997292 [Eh]
  Total E, Electronic energy at  298.15 [K]                           -237.75020877 [Eh]

  Enthalpy, H_trans = E_trans + k_B * T
    Electronic H            0.000 [kcal/mol]        0.000 [kJ/mol]       0.00000000 [Eh]
    Translational H         1.481 [kcal/mol]        6.197 [kJ/mol]       0.00236046 [Eh]
    Rotational H            0.889 [kcal/mol]        3.718 [kJ/mol]       0.00141628 [Eh]
    Vibrational H           4.481 [kcal/mol]       18.747 [kJ/mol]       0.00714037 [Eh]
  Correction H              6.851 [kcal/mol]       28.663 [kJ/mol]       0.01091711 [Eh]
  Total H, Enthalpy at  298.15 [K]                                    -237.74926458 [Eh]

  Gibbs free energy, G = H - T * S
    Electronic G            0.000 [kcal/mol]        0.000 [kJ/mol]       0.00000000 [Eh]
    Translational G        -9.745 [kcal/mol]      -40.772 [kJ/mol]      -0.01552906 [Eh]
    Rotational G           -4.905 [kcal/mol]      -20.524 [kJ/mol]      -0.00781720 [Eh]
    Vibrational G           4.355 [kcal/mol]       18.222 [kJ/mol]       0.00694023 [Eh]
  Correction G            -10.295 [kcal/mol]      -43.074 [kJ/mol]      -0.01640603 [Eh]
  Total G, Free enthalpy at  298.15 [K]                               -237.77658771 [Eh]

*** Psi4 exiting successfully. Buy a developer a beer!
