                               Psi4 1.3.2 release

  ==> Input File <==

--------------------------------------------------------------------------
memory 144 GB

molecule {
0 1
Cl 0.0000000000 0.0000000000 0.0000000000
Cl 0.0000000000 0.0000000000 1.9965761200
}

set dynamic_level 1
set basis cc-pV(Q+d)Z

optimize("wB97M-V")
frequencies("wB97M-V")
--------------------------------------------------------------------------

    Molecular point group: d2h
  Charge       = 0
  Multiplicity = 1
  Basis Set: CC-PV(Q+D)Z
    Blend: CC-PV(Q+D)Z
  Basis Set: (CC-PV(Q+D)Z AUX)
    Blend: CC-PVQZ-JKFIT
  @DF-RKS Final Energy:  -920.37132548484090
    Total Energy =                       -920.3713254848410088
    Molecular point group: d2h
  Basis Set: CC-PV(Q+D)Z
    Blend: CC-PV(Q+D)Z
  Basis Set: (CC-PV(Q+D)Z AUX)
    Blend: CC-PVQZ-JKFIT
  @DF-RKS Final Energy:  -920.37132079149114
    Total Energy =                       -920.3713207914911436
  Basis Set: CC-PV(Q+D)Z
    Blend: CC-PV(Q+D)Z
  Basis Set: (CC-PV(Q+D)Z AUX)
    Blend: CC-PVQZ-JKFIT
  @DF-RKS Final Energy:  -920.37132986995516
    Total Energy =                       -920.3713298699551615
  Basis Set: CC-PV(Q+D)Z
    Blend: CC-PV(Q+D)Z
  Basis Set: (CC-PV(Q+D)Z AUX)
    Blend: CC-PVQZ-JKFIT
  @DF-RKS Final Energy:  -920.37135388363697
    Total Energy =                       -920.3713538836368571
  @DF-RKS Final Energy:  -920.37135201781427
    Total Energy =                       -920.3713520178142744
  @DF-RKS Final Energy:  -920.37135543332784
    Total Energy =                       -920.3713554333278353
  @DF-RKS Final Energy:  -920.37135846924787
    Total Energy =                       -920.3713584692477525
  @DF-RKS Final Energy:  -920.37135834556193
    Total Energy =                       -920.3713583455618163
  @DF-RKS Final Energy:  -920.37135827209693
    Total Energy =                       -920.3713582720970408
  **** Optimization is complete! (in 3 steps) ****
    Final optimized geometry and variables:
  @DF-RKS Final Energy:  -920.37135846924809
    Total Energy =                       -920.3713584692482073
  @DF-RKS Final Energy:  -920.37135834556159
    Total Energy =                       -920.3713583455615890
  Basis Set: CC-PV(Q+D)Z
    Blend: CC-PV(Q+D)Z
  Basis Set: (CC-PV(Q+D)Z AUX)
    Blend: CC-PVQZ-JKFIT
  @DF-RKS Final Energy:  -920.37135827209727
    Total Energy =                       -920.3713582720972681
  Basis Set: CC-PV(Q+D)Z
    Blend: CC-PV(Q+D)Z
  Basis Set: (CC-PV(Q+D)Z AUX)
    Blend: CC-PVQZ-JKFIT
  @DF-RKS Final Energy:  -920.37135846924809
    Total Energy =                       -920.3713584692479799
  Multiplicity = 1
  Basis Set: CC-PV(Q+D)Z
    Blend: CC-PV(Q+D)Z
  Basis Set: (CC-PV(Q+D)Z AUX)
    Blend: CC-PVQZ-JKFIT
  @DF-RKS Final Energy:  -920.37135834556148
    Total Energy =                       -920.3713583455613616
    Molecular point group: d2h

    Geometry (in Angstrom), charge = 0, multiplicity = 1:

       Center              X                  Y                   Z               Mass
    ------------   -----------------  -----------------  -----------------  -----------------
         CL           0.000000000000     0.000000000000    -0.993369840250    34.968852682000
         CL           0.000000000000     0.000000000000     0.993369840250    34.968852682000

  Charge       = 0
  Multiplicity = 1
  Basis Set: CC-PV(Q+D)Z
    Blend: CC-PV(Q+D)Z
  Basis Set: (CC-PV(Q+D)Z AUX)
    Blend: CC-PVQZ-JKFIT

    Orbital Energies [Eh]
    ---------------------

    Doubly Occupied:

       1B1u -101.945871     1Ag  -101.945870     2Ag    -9.700763
       2B1u   -9.700724     3Ag    -7.408947     3B1u   -7.408810
       1B3g   -7.396341     1B2g   -7.396341     1B2u   -7.396339
       1B3u   -7.396339     4Ag    -1.059833     4B1u   -0.887594
       5Ag    -0.565241     2B3u   -0.516490     2B2u   -0.516490
       2B2g   -0.403220     2B3g   -0.403220

  @DF-RKS Final Energy:  -920.37135827209659

   => Energetics <=

    Nuclear Repulsion Energy =             76.9764732564889584
    One-Electron Energy =               -1423.3059031297166257
    Two-Electron Energy =                 469.4656845857836061
    DFT Exchange-Correlation Energy =     -43.6499083192239610
    Empirical Dispersion Energy =           0.0000000000000000
    VV10 Nonlocal Energy =                  0.1422953345714830
    Total Energy =                       -920.3713582720964723

  Dipole Moment: [D]
     X:     0.0000      Y:     0.0000      Z:    -0.0000     Total:     0.0000

  Vibration                       6
  Freq [cm^-1]                 582.3409
  Irrep                           Ag
  Reduced mass [u]             34.9689
  Force const [mDyne/A]         6.9869

  ==> Thermochemistry Components <==

  Entropy, S
    Electronic S            0.000 [cal/(mol K)]        0.000 [J/(mol K)]       0.00000000 [mEh/K] (multiplicity = 1)
    Translational S        38.652 [cal/(mol K)]      161.721 [J/(mol K)]       0.06159614 [mEh/K] (mol. weight = 69.9377 [u], P = 101325.00 [Pa])
    Rotational S           14.011 [cal/(mol K)]       58.624 [J/(mol K)]       0.02232852 [mEh/K] (symmetry no. = 2)
    Vibrational S           0.481 [cal/(mol K)]        2.013 [J/(mol K)]       0.00076659 [mEh/K]
  Total S                  53.145 [cal/(mol K)]      222.357 [J/(mol K)]       0.08469124 [mEh/K]
  Correction S              0.000 [cal/(mol K)]        0.000 [J/(mol K)]       0.00000000 [mEh/K]

  Constant volume heat capacity, Cv
    Electronic Cv           0.000 [cal/(mol K)]        0.000 [J/(mol K)]       0.00000000 [mEh/K]
    Translational Cv        2.981 [cal/(mol K)]       12.472 [J/(mol K)]       0.00475022 [mEh/K]
    Rotational Cv           1.987 [cal/(mol K)]        8.314 [J/(mol K)]       0.00316681 [mEh/K]
    Vibrational Cv          1.070 [cal/(mol K)]        4.475 [J/(mol K)]       0.00170438 [mEh/K]
  Total Cv                  6.038 [cal/(mol K)]       25.261 [J/(mol K)]       0.00962141 [mEh/K]
  Correction Cv             0.000 [cal/(mol K)]        0.000 [J/(mol K)]       0.00000000 [mEh/K]

  Constant pressure heat capacity, Cp
    Electronic Cp           0.000 [cal/(mol K)]        0.000 [J/(mol K)]       0.00000000 [mEh/K]
    Translational Cp        4.968 [cal/(mol K)]       20.786 [J/(mol K)]       0.00791703 [mEh/K]
    Rotational Cp           1.987 [cal/(mol K)]        8.314 [J/(mol K)]       0.00316681 [mEh/K]
    Vibrational Cp          1.070 [cal/(mol K)]        4.475 [J/(mol K)]       0.00170438 [mEh/K]
  Total Cp                  8.025 [cal/(mol K)]       33.575 [J/(mol K)]       0.01278822 [mEh/K]
  Correction Cp             0.000 [cal/(mol K)]        0.000 [J/(mol K)]       0.00000000 [mEh/K]

  ==> Thermochemistry Energy Analysis <==

  Raw electronic energy, E0
  Total E0, Electronic energy at well bottom at 0 [K]                 -920.37135847 [Eh]

  Zero-point energy, ZPE_vib = Sum_i nu_i / 2
    Electronic ZPE          0.000 [kcal/mol]        0.000 [kJ/mol]       0.00000000 [Eh]
    Translational ZPE       0.000 [kcal/mol]        0.000 [kJ/mol]       0.00000000 [Eh]
    Rotational ZPE          0.000 [kcal/mol]        0.000 [kJ/mol]       0.00000000 [Eh]
    Vibrational ZPE         0.832 [kcal/mol]        3.483 [kJ/mol]       0.00132667 [Eh]         291.170 [cm^-1]
  Correction ZPE            0.832 [kcal/mol]        3.483 [kJ/mol]       0.00132667 [Eh]         291.170 [cm^-1]
  Total ZPE, Electronic energy at 0 [K]                               -920.37003180 [Eh]

  Thermal Energy, E (includes ZPE)
    Electronic E            0.000 [kcal/mol]        0.000 [kJ/mol]       0.00000000 [Eh]
    Translational E         0.889 [kcal/mol]        3.718 [kJ/mol]       0.00141628 [Eh]
    Rotational E            0.592 [kcal/mol]        2.479 [kJ/mol]       0.00094418 [Eh]
    Vibrational E           0.939 [kcal/mol]        3.929 [kJ/mol]       0.00149661 [Eh]
  Correction E              2.420 [kcal/mol]       10.127 [kJ/mol]       0.00385707 [Eh]
  Total E, Electronic energy at  298.15 [K]                           -920.36750139 [Eh]

  Enthalpy, H_trans = E_trans + k_B * T
    Electronic H            0.000 [kcal/mol]        0.000 [kJ/mol]       0.00000000 [Eh]
    Translational H         1.481 [kcal/mol]        6.197 [kJ/mol]       0.00236046 [Eh]
    Rotational H            0.592 [kcal/mol]        2.479 [kJ/mol]       0.00094418 [Eh]
    Vibrational H           0.939 [kcal/mol]        3.929 [kJ/mol]       0.00149661 [Eh]
  Correction H              3.013 [kcal/mol]       12.606 [kJ/mol]       0.00480126 [Eh]
  Total H, Enthalpy at  298.15 [K]                                    -920.36655721 [Eh]

  Gibbs free energy, G = H - T * S
    Electronic G            0.000 [kcal/mol]        0.000 [kJ/mol]       0.00000000 [Eh]
    Translational G       -10.043 [kcal/mol]      -42.020 [kJ/mol]      -0.01600443 [Eh]
    Rotational G           -3.585 [kcal/mol]      -15.000 [kJ/mol]      -0.00571306 [Eh]
    Vibrational G           0.796 [kcal/mol]        3.329 [kJ/mol]       0.00126805 [Eh]
  Correction G            -12.832 [kcal/mol]      -53.690 [kJ/mol]      -0.02044943 [Eh]
  Total G, Free enthalpy at  298.15 [K]                               -920.39180790 [Eh]

*** Psi4 exiting successfully. Buy a developer a beer!
