                               Psi4 1.3.2 release

  ==> Input File <==

--------------------------------------------------------------------------
memory 144 GB

molecule {
0 1
Cl 0.0000000000 0.0000000000 0.0000000000
C 0.0000000000 0.0000000000 1.6357056100
N 0.0000000000 0.0000000000 2.7976884200
}

set dynamic_level 1
set basis cc-pV(Q+d)Z

optimize("wB97M-V")
frequencies("wB97M-V")
--------------------------------------------------------------------------

    Molecular point group: c2v
  Charge       = 0
  Multiplicity = 1
  Basis Set: CC-PV(Q+D)Z
    Blend: CC-PV(Q+D)Z
  Basis Set: (CC-PV(Q+D)Z AUX)
    Blend: CC-PVQZ-JKFIT
  @DF-RKS Final Energy:  -553.03520701946991
    Total Energy =                       -553.0352070194699081
    Molecular point group: c2v
  Basis Set: CC-PV(Q+D)Z
    Blend: CC-PV(Q+D)Z
  Basis Set: (CC-PV(Q+D)Z AUX)
    Blend: CC-PVQZ-JKFIT
  @DF-RKS Final Energy:  -553.03520375874325
    Total Energy =                       -553.0352037587432505
  Basis Set: CC-PV(Q+D)Z
    Blend: CC-PV(Q+D)Z
  Basis Set: (CC-PV(Q+D)Z AUX)
    Blend: CC-PVQZ-JKFIT
  @DF-RKS Final Energy:  -553.03520970593286
    Total Energy =                       -553.0352097059328571
  Basis Set: CC-PV(Q+D)Z
    Blend: CC-PV(Q+D)Z
  Basis Set: (CC-PV(Q+D)Z AUX)
    Blend: CC-PVQZ-JKFIT
  @DF-RKS Final Energy:  -553.03514497808658
    Total Energy =                       -553.0351449780865778
  @DF-RKS Final Energy:  -553.03526424619167
    Total Energy =                       -553.0352642461919004
  @DF-RKS Final Energy:  -553.03562649374157
    Total Energy =                       -553.0356264937414608
  @DF-RKS Final Energy:  -553.03562608310745
    Total Energy =                       -553.0356260831074451
  @DF-RKS Final Energy:  -553.03562632088358
    Total Energy =                       -553.0356263208835799
  @DF-RKS Final Energy:  -553.03562167787811
    Total Energy =                       -553.0356216778779981
  @DF-RKS Final Energy:  -553.03562608958418
    Total Energy =                       -553.0356260895840705
  @DF-RKS Final Energy:  -553.03562704383103
    Total Energy =                       -553.0356270438310275
  @DF-RKS Final Energy:  -553.03562675102194
    Total Energy =                       -553.0356267510219368
  @DF-RKS Final Energy:  -553.03562675286469
    Total Energy =                       -553.0356267528648004
  @DF-RKS Final Energy:  -553.03562452992094
    Total Energy =                       -553.0356245299209377
  @DF-RKS Final Energy:  -553.03562432038962
    Total Energy =                       -553.0356243203898430
  **** Optimization is complete! (in 3 steps) ****
    Final optimized geometry and variables:
  @DF-RKS Final Energy:  -553.03562704347132
    Total Energy =                       -553.0356270434713224
  @DF-RKS Final Energy:  -553.03562675054445
    Total Energy =                       -553.0356267505444521
  @DF-RKS Final Energy:  -553.03562675245689
    Total Energy =                       -553.0356267524567784
  @DF-RKS Final Energy:  -553.03562452989286
    Total Energy =                       -553.0356245298929707
  @DF-RKS Final Energy:  -553.03562432005094
    Total Energy =                       -553.0356243200510562
  @DF-RKS Final Energy:  -553.03562704347155
    Total Energy =                       -553.0356270434716635
  @DF-RKS Final Energy:  -553.03562675054513
    Total Energy =                       -553.0356267505451342
  @DF-RKS Final Energy:  -553.03562675245678
    Total Energy =                       -553.0356267524567784
  @DF-RKS Final Energy:  -553.03562452989286
    Total Energy =                       -553.0356245298928570
  @DF-RKS Final Energy:  -553.03562432005151
    Total Energy =                       -553.0356243200515109
  Basis Set: CC-PV(Q+D)Z
    Blend: CC-PV(Q+D)Z
  Basis Set: (CC-PV(Q+D)Z AUX)
    Blend: CC-PVQZ-JKFIT
  @DF-RKS Final Energy:  -553.03562446230524
    Total Energy =                       -553.0356244623052362
  Basis Set: CC-PV(Q+D)Z
    Blend: CC-PV(Q+D)Z
  Basis Set: (CC-PV(Q+D)Z AUX)
    Blend: CC-PVQZ-JKFIT
  @DF-RKS Final Energy:  -553.03562466869107
    Total Energy =                       -553.0356246686911845
  Multiplicity = 1
  Basis Set: CC-PV(Q+D)Z
    Blend: CC-PV(Q+D)Z
  Basis Set: (CC-PV(Q+D)Z AUX)
    Blend: CC-PVQZ-JKFIT
  @DF-RKS Final Energy:  -553.03562696594474
    Total Energy =                       -553.0356269659446298
    Molecular point group: cs

    Geometry (in Angstrom), charge = 0, multiplicity = 1:

       Center              X                  Y                   Z               Mass
    ------------   -----------------  -----------------  -----------------  -----------------
         CL           0.000000000000    -0.000093005270    -0.960108564424    34.968852682000
         C            0.000000000000     0.000656427757     0.672782229676    12.000000000000
         N            0.000000000000    -0.000330273588     1.821065016431    14.003074004430

  Charge       = 0
  Multiplicity = 1
  Basis Set: CC-PV(Q+D)Z
    Blend: CC-PV(Q+D)Z
  Basis Set: (CC-PV(Q+D)Z AUX)
    Blend: CC-PVQZ-JKFIT

    Orbital Energies [Eh]
    ---------------------

    Doubly Occupied:

       1Ap  -101.979114     2Ap   -14.530436     3Ap   -10.444150
       4Ap    -9.735964     5Ap    -7.442053     1App   -7.432467
       6Ap    -7.432467     7Ap    -1.092429     8Ap    -1.032443
       9Ap    -0.685884     2App   -0.552129    10Ap    -0.552129
      11Ap    -0.502114     3App   -0.436343    12Ap    -0.436343

  @DF-RKS Final Energy:  -553.03562696543747

   => Energetics <=

    Nuclear Repulsion Energy =             75.0531680854447671
    One-Electron Energy =                -908.4283355718616804
    Two-Electron Energy =                 310.8528163362479972
    DFT Exchange-Correlation Energy =     -30.6376622308432900
    Empirical Dispersion Energy =           0.0000000000000000
    VV10 Nonlocal Energy =                  0.1243864155746693
    Total Energy =                       -553.0356269654374728

  Dipole Moment: [D]
     X:     0.0000      Y:     0.0007      Z:    -2.9387     Total:     2.9387

  Vibration                       6                   7                   8
  Freq [cm^-1]                 404.8324            406.1546            758.3446
  Irrep                           B1                  B2                  A1
  Reduced mass [u]             12.7604             12.7604             17.9641
  Force const [mDyne/A]         1.2322              1.2402              6.0868

  Vibration                       9
  Freq [cm^-1]                2361.6849
  Irrep                           A1
  Reduced mass [u]             12.7432
  Force const [mDyne/A]        41.8766

  ==> Thermochemistry Components <==

  Entropy, S
    Electronic S            0.000 [cal/(mol K)]        0.000 [J/(mol K)]       0.00000000 [mEh/K] (multiplicity = 1)
    Translational S        38.243 [cal/(mol K)]      160.010 [J/(mol K)]       0.06094445 [mEh/K] (mol. weight = 60.9719 [u], P = 101325.00 [Pa])
    Rotational S           15.780 [cal/(mol K)]       66.026 [J/(mol K)]       0.02514782 [mEh/K] (symmetry no. = 1)
    Vibrational S           2.130 [cal/(mol K)]        8.910 [J/(mol K)]       0.00339379 [mEh/K]
  Total S                  56.153 [cal/(mol K)]      234.946 [J/(mol K)]       0.08948606 [mEh/K]
  Correction S              0.000 [cal/(mol K)]        0.000 [J/(mol K)]       0.00000000 [mEh/K]

  Constant volume heat capacity, Cv
    Electronic Cv           0.000 [cal/(mol K)]        0.000 [J/(mol K)]       0.00000000 [mEh/K]
    Translational Cv        2.981 [cal/(mol K)]       12.472 [J/(mol K)]       0.00475022 [mEh/K]
    Rotational Cv           1.987 [cal/(mol K)]        8.314 [J/(mol K)]       0.00316681 [mEh/K]
    Vibrational Cv          3.641 [cal/(mol K)]       15.235 [J/(mol K)]       0.00580272 [mEh/K]
  Total Cv                  8.609 [cal/(mol K)]       36.021 [J/(mol K)]       0.01371974 [mEh/K]
  Correction Cv             0.000 [cal/(mol K)]        0.000 [J/(mol K)]       0.00000000 [mEh/K]

  Constant pressure heat capacity, Cp
    Electronic Cp           0.000 [cal/(mol K)]        0.000 [J/(mol K)]       0.00000000 [mEh/K]
    Translational Cp        4.968 [cal/(mol K)]       20.786 [J/(mol K)]       0.00791703 [mEh/K]
    Rotational Cp           1.987 [cal/(mol K)]        8.314 [J/(mol K)]       0.00316681 [mEh/K]
    Vibrational Cp          3.641 [cal/(mol K)]       15.235 [J/(mol K)]       0.00580272 [mEh/K]
  Total Cp                 10.596 [cal/(mol K)]       44.336 [J/(mol K)]       0.01688656 [mEh/K]
  Correction Cp             0.000 [cal/(mol K)]        0.000 [J/(mol K)]       0.00000000 [mEh/K]

  ==> Thermochemistry Energy Analysis <==

  Raw electronic energy, E0
  Total E0, Electronic energy at well bottom at 0 [K]                 -553.03562704 [Eh]

  Zero-point energy, ZPE_vib = Sum_i nu_i / 2
    Electronic ZPE          0.000 [kcal/mol]        0.000 [kJ/mol]       0.00000000 [Eh]
    Translational ZPE       0.000 [kcal/mol]        0.000 [kJ/mol]       0.00000000 [Eh]
    Rotational ZPE          0.000 [kcal/mol]        0.000 [kJ/mol]       0.00000000 [Eh]
    Vibrational ZPE         5.620 [kcal/mol]       23.513 [kJ/mol]       0.00895551 [Eh]        1965.508 [cm^-1]
  Correction ZPE            5.620 [kcal/mol]       23.513 [kJ/mol]       0.00895551 [Eh]        1965.508 [cm^-1]
  Total ZPE, Electronic energy at 0 [K]                               -553.02667153 [Eh]

  Thermal Energy, E (includes ZPE)
    Electronic E            0.000 [kcal/mol]        0.000 [kJ/mol]       0.00000000 [Eh]
    Translational E         0.889 [kcal/mol]        3.718 [kJ/mol]       0.00141628 [Eh]
    Rotational E            0.592 [kcal/mol]        2.479 [kJ/mol]       0.00094418 [Eh]
    Vibrational E           6.059 [kcal/mol]       25.349 [kJ/mol]       0.00965504 [Eh]
  Correction E              7.540 [kcal/mol]       31.547 [kJ/mol]       0.01201550 [Eh]
  Total E, Electronic energy at  298.15 [K]                           -553.02361154 [Eh]

  Enthalpy, H_trans = E_trans + k_B * T
    Electronic H            0.000 [kcal/mol]        0.000 [kJ/mol]       0.00000000 [Eh]
    Translational H         1.481 [kcal/mol]        6.197 [kJ/mol]       0.00236046 [Eh]
    Rotational H            0.592 [kcal/mol]        2.479 [kJ/mol]       0.00094418 [Eh]
    Vibrational H           6.059 [kcal/mol]       25.349 [kJ/mol]       0.00965504 [Eh]
  Correction H              8.132 [kcal/mol]       34.026 [kJ/mol]       0.01295969 [Eh]
  Total H, Enthalpy at  298.15 [K]                                    -553.02266736 [Eh]

  Gibbs free energy, G = H - T * S
    Electronic G            0.000 [kcal/mol]        0.000 [kJ/mol]       0.00000000 [Eh]
    Translational G        -9.921 [kcal/mol]      -41.509 [kJ/mol]      -0.01581013 [Eh]
    Rotational G           -4.112 [kcal/mol]      -17.207 [kJ/mol]      -0.00655364 [Eh]
    Vibrational G           5.424 [kcal/mol]       22.693 [kJ/mol]       0.00864318 [Eh]
  Correction G             -8.610 [kcal/mol]      -36.023 [kJ/mol]      -0.01372058 [Eh]
  Total G, Free enthalpy at  298.15 [K]                               -553.04934762 [Eh]

*** Psi4 exiting successfully. Buy a developer a beer!
