                               Psi4 1.3.2 release

  ==> Input File <==

--------------------------------------------------------------------------
memory 144 GB

molecule {
0 1
Cl 0.0000000000 0.0000000000 0.0000000000
F 0.0000000000 0.0000000000 1.6318233300
}

set dynamic_level 1
set basis cc-pV(Q+d)Z

optimize("wB97M-V")
frequencies("wB97M-V")
--------------------------------------------------------------------------

    Molecular point group: c2v
  Charge       = 0
  Multiplicity = 1
  Basis Set: CC-PV(Q+D)Z
    Blend: CC-PV(Q+D)Z
  Basis Set: (CC-PV(Q+D)Z AUX)
    Blend: CC-PVQZ-JKFIT
  @DF-RKS Final Energy:  -559.98622693968764
    Total Energy =                       -559.9862269396876400
    Molecular point group: c2v
  Basis Set: CC-PV(Q+D)Z
    Blend: CC-PV(Q+D)Z
  Basis Set: (CC-PV(Q+D)Z AUX)
    Blend: CC-PVQZ-JKFIT
  @DF-RKS Final Energy:  -559.98621943891328
    Total Energy =                       -559.9862194389132810
  Basis Set: CC-PV(Q+D)Z
    Blend: CC-PV(Q+D)Z
  Basis Set: (CC-PV(Q+D)Z AUX)
    Blend: CC-PVQZ-JKFIT
  @DF-RKS Final Energy:  -559.98623381927155
    Total Energy =                       -559.9862338192715470
  Basis Set: CC-PV(Q+D)Z
    Blend: CC-PV(Q+D)Z
  Basis Set: (CC-PV(Q+D)Z AUX)
    Blend: CC-PVQZ-JKFIT
  @DF-RKS Final Energy:  -559.98626388281446
    Total Energy =                       -559.9862638828145691
  @DF-RKS Final Energy:  -559.98626127672071
    Total Energy =                       -559.9862612767205974
  @DF-RKS Final Energy:  -559.98626584880981
    Total Energy =                       -559.9862658488098077
  @DF-RKS Final Energy:  -559.98626794474444
    Total Energy =                       -559.9862679447444407
  @DF-RKS Final Energy:  -559.98626767123119
    Total Energy =                       -559.9862676712311895
  @DF-RKS Final Energy:  -559.98626756890940
    Total Energy =                       -559.9862675689093976
  **** Optimization is complete! (in 3 steps) ****
    Final optimized geometry and variables:
  @DF-RKS Final Energy:  -559.98626794474399
    Total Energy =                       -559.9862679447439859
  @DF-RKS Final Energy:  -559.98626767123108
    Total Energy =                       -559.9862676712311895
  Basis Set: CC-PV(Q+D)Z
    Blend: CC-PV(Q+D)Z
  Basis Set: (CC-PV(Q+D)Z AUX)
    Blend: CC-PVQZ-JKFIT
  @DF-RKS Final Energy:  -559.98626756890883
    Total Energy =                       -559.9862675689089428
  Basis Set: CC-PV(Q+D)Z
    Blend: CC-PV(Q+D)Z
  Basis Set: (CC-PV(Q+D)Z AUX)
    Blend: CC-PVQZ-JKFIT
  @DF-RKS Final Energy:  -559.98626794474433
    Total Energy =                       -559.9862679447442133
  Multiplicity = 1
  Basis Set: CC-PV(Q+D)Z
    Blend: CC-PV(Q+D)Z
  Basis Set: (CC-PV(Q+D)Z AUX)
    Blend: CC-PVQZ-JKFIT
  @DF-RKS Final Energy:  -559.98626767123119
    Total Energy =                       -559.9862676712311895
    Molecular point group: c2v

    Geometry (in Angstrom), charge = 0, multiplicity = 1:

       Center              X                  Y                   Z               Mass
    ------------   -----------------  -----------------  -----------------  -----------------
         CL           0.000000000000     0.000000000000    -0.571168067848    34.968852682000
         F            0.000000000000     0.000000000000     1.051303725380    18.998403162730

  Charge       = 0
  Multiplicity = 1
  Basis Set: CC-PV(Q+D)Z
    Blend: CC-PV(Q+D)Z
  Basis Set: (CC-PV(Q+D)Z AUX)
    Blend: CC-PVQZ-JKFIT

    Orbital Energies [Eh]
    ---------------------

    Doubly Occupied:

       1A1  -101.976499     2A1   -24.954357     3A1    -9.728111
       4A1    -7.438958     1B1    -7.422570     1B2    -7.422570
       5A1    -1.379064     6A1    -0.958525     7A1    -0.641164
       2B2    -0.605312     2B1    -0.605312     3B1    -0.433373
       3B2    -0.433373

  @DF-RKS Final Energy:  -559.98626756890940

   => Energetics <=

    Nuclear Repulsion Energy =             49.9017077341143320
    One-Electron Energy =                -873.3035935082882588
    Two-Electron Energy =                 292.8292669358295370
    DFT Exchange-Correlation Energy =     -29.5234924045579064
    Empirical Dispersion Energy =           0.0000000000000000
    VV10 Nonlocal Energy =                  0.1098436739929461
    Total Energy =                       -559.9862675689093976

  Dipole Moment: [D]
     X:     0.0000      Y:     0.0000      Z:    -0.8740     Total:     0.8740

  Vibration                       6
  Freq [cm^-1]                 828.4629
  Irrep                           A1
  Reduced mass [u]             22.6381
  Force const [mDyne/A]         9.1545

  ==> Thermochemistry Components <==

  Entropy, S
    Electronic S            0.000 [cal/(mol K)]        0.000 [J/(mol K)]       0.00000000 [mEh/K] (multiplicity = 1)
    Translational S        37.879 [cal/(mol K)]      158.488 [J/(mol K)]       0.06036475 [mEh/K] (mol. weight = 53.9673 [u], P = 101325.00 [Pa])
    Rotational S           13.887 [cal/(mol K)]       58.104 [J/(mol K)]       0.02213051 [mEh/K] (symmetry no. = 1)
    Vibrational S           0.185 [cal/(mol K)]        0.776 [J/(mol K)]       0.00029538 [mEh/K]
  Total S                  51.952 [cal/(mol K)]      217.367 [J/(mol K)]       0.08279065 [mEh/K]
  Correction S              0.000 [cal/(mol K)]        0.000 [J/(mol K)]       0.00000000 [mEh/K]

  Constant volume heat capacity, Cv
    Electronic Cv           0.000 [cal/(mol K)]        0.000 [J/(mol K)]       0.00000000 [mEh/K]
    Translational Cv        2.981 [cal/(mol K)]       12.472 [J/(mol K)]       0.00475022 [mEh/K]
    Rotational Cv           1.987 [cal/(mol K)]        8.314 [J/(mol K)]       0.00316681 [mEh/K]
    Vibrational Cv          0.605 [cal/(mol K)]        2.531 [J/(mol K)]       0.00096407 [mEh/K]
  Total Cv                  5.573 [cal/(mol K)]       23.317 [J/(mol K)]       0.00888110 [mEh/K]
  Correction Cv             0.000 [cal/(mol K)]        0.000 [J/(mol K)]       0.00000000 [mEh/K]

  Constant pressure heat capacity, Cp
    Electronic Cp           0.000 [cal/(mol K)]        0.000 [J/(mol K)]       0.00000000 [mEh/K]
    Translational Cp        4.968 [cal/(mol K)]       20.786 [J/(mol K)]       0.00791703 [mEh/K]
    Rotational Cp           1.987 [cal/(mol K)]        8.314 [J/(mol K)]       0.00316681 [mEh/K]
    Vibrational Cp          0.605 [cal/(mol K)]        2.531 [J/(mol K)]       0.00096407 [mEh/K]
  Total Cp                  7.560 [cal/(mol K)]       31.632 [J/(mol K)]       0.01204791 [mEh/K]
  Correction Cp             0.000 [cal/(mol K)]        0.000 [J/(mol K)]       0.00000000 [mEh/K]

  ==> Thermochemistry Energy Analysis <==

  Raw electronic energy, E0
  Total E0, Electronic energy at well bottom at 0 [K]                 -559.98626794 [Eh]

  Zero-point energy, ZPE_vib = Sum_i nu_i / 2
    Electronic ZPE          0.000 [kcal/mol]        0.000 [kJ/mol]       0.00000000 [Eh]
    Translational ZPE       0.000 [kcal/mol]        0.000 [kJ/mol]       0.00000000 [Eh]
    Rotational ZPE          0.000 [kcal/mol]        0.000 [kJ/mol]       0.00000000 [Eh]
    Vibrational ZPE         1.184 [kcal/mol]        4.955 [kJ/mol]       0.00188738 [Eh]         414.231 [cm^-1]
  Correction ZPE            1.184 [kcal/mol]        4.955 [kJ/mol]       0.00188738 [Eh]         414.231 [cm^-1]
  Total ZPE, Electronic energy at 0 [K]                               -559.98438057 [Eh]

  Thermal Energy, E (includes ZPE)
    Electronic E            0.000 [kcal/mol]        0.000 [kJ/mol]       0.00000000 [Eh]
    Translational E         0.889 [kcal/mol]        3.718 [kJ/mol]       0.00141628 [Eh]
    Rotational E            0.592 [kcal/mol]        2.479 [kJ/mol]       0.00094418 [Eh]
    Vibrational E           1.229 [kcal/mol]        5.141 [kJ/mol]       0.00195796 [Eh]
  Correction E              2.710 [kcal/mol]       11.338 [kJ/mol]       0.00431842 [Eh]
  Total E, Electronic energy at  298.15 [K]                           -559.98194953 [Eh]

  Enthalpy, H_trans = E_trans + k_B * T
    Electronic H            0.000 [kcal/mol]        0.000 [kJ/mol]       0.00000000 [Eh]
    Translational H         1.481 [kcal/mol]        6.197 [kJ/mol]       0.00236046 [Eh]
    Rotational H            0.592 [kcal/mol]        2.479 [kJ/mol]       0.00094418 [Eh]
    Vibrational H           1.229 [kcal/mol]        5.141 [kJ/mol]       0.00195796 [Eh]
  Correction H              3.302 [kcal/mol]       13.817 [kJ/mol]       0.00526260 [Eh]
  Total H, Enthalpy at  298.15 [K]                                    -559.98100534 [Eh]

  Gibbs free energy, G = H - T * S
    Electronic G            0.000 [kcal/mol]        0.000 [kJ/mol]       0.00000000 [Eh]
    Translational G        -9.813 [kcal/mol]      -41.056 [kJ/mol]      -0.01563729 [Eh]
    Rotational G           -3.548 [kcal/mol]      -14.845 [kJ/mol]      -0.00565403 [Eh]
    Vibrational G           1.173 [kcal/mol]        4.909 [kJ/mol]       0.00186989 [Eh]
  Correction G            -12.187 [kcal/mol]      -50.991 [kJ/mol]      -0.01942143 [Eh]
  Total G, Free enthalpy at  298.15 [K]                               -560.00568937 [Eh]

*** Psi4 exiting successfully. Buy a developer a beer!
