                               Psi4 1.3.2 release

  ==> Input File <==

--------------------------------------------------------------------------
memory 144 GB

molecule {
0 1
C 0.0000000000 0.0000000000 0.0000000000
O 0.0000000000 0.0000000000 1.1626000000
O 0.0000000000 0.0000000000 -1.1626000000
}

set dynamic_level 1
set basis cc-pV(Q+d)Z

optimize("wB97M-V")
frequencies("wB97M-V")
--------------------------------------------------------------------------

    Molecular point group: d2h
  Charge       = 0
  Multiplicity = 1
  Basis Set: CC-PV(Q+D)Z
    Blend: CC-PV(Q+D)Z
  Basis Set: (CC-PV(Q+D)Z AUX)
    Blend: CC-PVQZ-JKFIT
  @DF-RKS Final Energy:  -188.62890402732233
    Total Energy =                       -188.6289040273223350
    Molecular point group: d2h
  Basis Set: CC-PV(Q+D)Z
    Blend: CC-PV(Q+D)Z
  Basis Set: (CC-PV(Q+D)Z AUX)
    Blend: CC-PVQZ-JKFIT
  @DF-RKS Final Energy:  -188.62892328171756
    Total Energy =                       -188.6289232817175332
  Basis Set: CC-PV(Q+D)Z
    Blend: CC-PV(Q+D)Z
  Basis Set: (CC-PV(Q+D)Z AUX)
    Blend: CC-PVQZ-JKFIT
  @DF-RKS Final Energy:  -188.62888300818705
    Total Energy =                       -188.6288830081870458
  Basis Set: CC-PV(Q+D)Z
    Blend: CC-PV(Q+D)Z
  Basis Set: (CC-PV(Q+D)Z AUX)
    Blend: CC-PVQZ-JKFIT
  @DF-RKS Final Energy:  -188.62901662188938
    Total Energy =                       -188.6290166218893773
  @DF-RKS Final Energy:  -188.62901751695645
    Total Energy =                       -188.6290175169564520
  @DF-RKS Final Energy:  -188.62901390351632
    Total Energy =                       -188.6290139035163520
  @DF-RKS Final Energy:  -188.62901751646825
    Total Energy =                       -188.6290175164682523
  @DF-RKS Final Energy:  -188.62901656799440
    Total Energy =                       -188.6290165679943698
  @DF-RKS Final Energy:  -188.62901663431259
    Total Energy =                       -188.6290166343125918
  **** Optimization is complete! (in 3 steps) ****
    Final optimized geometry and variables:
  @DF-RKS Final Energy:  -188.62901751646839
    Total Energy =                       -188.6290175164683944
  @DF-RKS Final Energy:  -188.62901656799446
    Total Energy =                       -188.6290165679944835
  @DF-RKS Final Energy:  -188.62901663431279
    Total Energy =                       -188.6290166343127908
  @DF-RKS Final Energy:  -188.62901751646842
    Total Energy =                       -188.6290175164684513
  @DF-RKS Final Energy:  -188.62901656799431
    Total Energy =                       -188.6290165679943129
  Basis Set: CC-PV(Q+D)Z
    Blend: CC-PV(Q+D)Z
  Basis Set: (CC-PV(Q+D)Z AUX)
    Blend: CC-PVQZ-JKFIT
  @DF-RKS Final Energy:  -188.62901663431285
    Total Energy =                       -188.6290166343128760
  Basis Set: CC-PV(Q+D)Z
    Blend: CC-PV(Q+D)Z
  Basis Set: (CC-PV(Q+D)Z AUX)
    Blend: CC-PVQZ-JKFIT
  @DF-RKS Final Energy:  -188.62901474460156
    Total Energy =                       -188.6290147446015624
  Multiplicity = 1
  Basis Set: CC-PV(Q+D)Z
    Blend: CC-PV(Q+D)Z
  Basis Set: (CC-PV(Q+D)Z AUX)
    Blend: CC-PVQZ-JKFIT
  @DF-RKS Final Energy:  -188.62901729584607
    Total Energy =                       -188.6290172958460687
    Molecular point group: c2v

    Geometry (in Angstrom), charge = 0, multiplicity = 1:

       Center              X                  Y                   Z               Mass
    ------------   -----------------  -----------------  -----------------  -----------------
         C           -0.000651343880     0.000000000000     0.000000000000    12.000000000000
         O            0.000244331612     0.000000000000     1.157350569549    15.994914619570
         O            0.000244331612     0.000000000000    -1.157350569549    15.994914619570

  Charge       = 0
  Multiplicity = 1
  Basis Set: CC-PV(Q+D)Z
    Blend: CC-PV(Q+D)Z
  Basis Set: (CC-PV(Q+D)Z AUX)
    Blend: CC-PVQZ-JKFIT

    Orbital Energies [Eh]
    ---------------------

    Doubly Occupied:

       1B2   -19.412308     1A1   -19.412279     2A1   -10.535062
       3A1    -1.297220     2B2    -1.254283     4A1    -0.683292
       1B1    -0.636565     5A1    -0.636565     3B2    -0.636119
       1A2    -0.478746     4B2    -0.478746

  @DF-RKS Final Energy:  -188.62901729580892

   => Energetics <=

    Nuclear Repulsion Energy =             58.5256270096125775
    One-Electron Energy =                -373.0950058331984565
    Two-Electron Energy =                 142.2556613768608997
    DFT Exchange-Correlation Energy =     -16.4070506003976107
    Empirical Dispersion Energy =           0.0000000000000000
    VV10 Nonlocal Energy =                  0.0917507513136948
    Total Energy =                       -188.6290172958089215

  Dipole Moment: [D]
     X:    -0.0023      Y:     0.0000      Z:     0.0000     Total:     0.0023

  Vibration                       6                   7                   8
  Freq [cm^-1]                 682.9266            682.9841           1391.0237
  Irrep                          B2u                 B3u                  Ag
  Reduced mass [u]             12.8774             12.8774             15.9949
  Force const [mDyne/A]         3.5386              3.5391             18.2348

  Vibration                       9
  Freq [cm^-1]                2420.6693
  Irrep                          B1u
  Reduced mass [u]             12.8774
  Force const [mDyne/A]        44.4578

  ==> Thermochemistry Components <==

  Entropy, S
    Electronic S            0.000 [cal/(mol K)]        0.000 [J/(mol K)]       0.00000000 [mEh/K] (multiplicity = 1)
    Translational S        37.270 [cal/(mol K)]      155.938 [J/(mol K)]       0.05939371 [mEh/K] (mol. weight = 43.9898 [u], P = 101325.00 [Pa])
    Rotational S           13.063 [cal/(mol K)]       54.655 [J/(mol K)]       0.02081715 [mEh/K] (symmetry no. = 2)
    Vibrational S           0.673 [cal/(mol K)]        2.815 [J/(mol K)]       0.00107205 [mEh/K]
  Total S                  51.006 [cal/(mol K)]      213.408 [J/(mol K)]       0.08128292 [mEh/K]
  Correction S              0.000 [cal/(mol K)]        0.000 [J/(mol K)]       0.00000000 [mEh/K]

  Constant volume heat capacity, Cv
    Electronic Cv           0.000 [cal/(mol K)]        0.000 [J/(mol K)]       0.00000000 [mEh/K]
    Translational Cv        2.981 [cal/(mol K)]       12.472 [J/(mol K)]       0.00475022 [mEh/K]
    Rotational Cv           1.987 [cal/(mol K)]        8.314 [J/(mol K)]       0.00316681 [mEh/K]
    Vibrational Cv          1.836 [cal/(mol K)]        7.681 [J/(mol K)]       0.00292555 [mEh/K]
  Total Cv                  6.804 [cal/(mol K)]       28.467 [J/(mol K)]       0.01084258 [mEh/K]
  Correction Cv             0.000 [cal/(mol K)]        0.000 [J/(mol K)]       0.00000000 [mEh/K]

  Constant pressure heat capacity, Cp
    Electronic Cp           0.000 [cal/(mol K)]        0.000 [J/(mol K)]       0.00000000 [mEh/K]
    Translational Cp        4.968 [cal/(mol K)]       20.786 [J/(mol K)]       0.00791703 [mEh/K]
    Rotational Cp           1.987 [cal/(mol K)]        8.314 [J/(mol K)]       0.00316681 [mEh/K]
    Vibrational Cp          1.836 [cal/(mol K)]        7.681 [J/(mol K)]       0.00292555 [mEh/K]
  Total Cp                  8.791 [cal/(mol K)]       36.782 [J/(mol K)]       0.01400939 [mEh/K]
  Correction Cp             0.000 [cal/(mol K)]        0.000 [J/(mol K)]       0.00000000 [mEh/K]

  ==> Thermochemistry Energy Analysis <==

  Raw electronic energy, E0
  Total E0, Electronic energy at well bottom at 0 [K]                 -188.62901752 [Eh]

  Zero-point energy, ZPE_vib = Sum_i nu_i / 2
    Electronic ZPE          0.000 [kcal/mol]        0.000 [kJ/mol]       0.00000000 [Eh]
    Translational ZPE       0.000 [kcal/mol]        0.000 [kJ/mol]       0.00000000 [Eh]
    Rotational ZPE          0.000 [kcal/mol]        0.000 [kJ/mol]       0.00000000 [Eh]
    Vibrational ZPE         7.402 [kcal/mol]       30.969 [kJ/mol]       0.01179545 [Eh]        2588.802 [cm^-1]
  Correction ZPE            7.402 [kcal/mol]       30.969 [kJ/mol]       0.01179545 [Eh]        2588.802 [cm^-1]
  Total ZPE, Electronic energy at 0 [K]                               -188.61722207 [Eh]

  Thermal Energy, E (includes ZPE)
    Electronic E            0.000 [kcal/mol]        0.000 [kJ/mol]       0.00000000 [Eh]
    Translational E         0.889 [kcal/mol]        3.718 [kJ/mol]       0.00141628 [Eh]
    Rotational E            0.592 [kcal/mol]        2.479 [kJ/mol]       0.00094418 [Eh]
    Vibrational E           7.557 [kcal/mol]       31.618 [kJ/mol]       0.01204265 [Eh]
  Correction E              9.038 [kcal/mol]       37.815 [kJ/mol]       0.01440311 [Eh]
  Total E, Electronic energy at  298.15 [K]                           -188.61461441 [Eh]

  Enthalpy, H_trans = E_trans + k_B * T
    Electronic H            0.000 [kcal/mol]        0.000 [kJ/mol]       0.00000000 [Eh]
    Translational H         1.481 [kcal/mol]        6.197 [kJ/mol]       0.00236046 [Eh]
    Rotational H            0.592 [kcal/mol]        2.479 [kJ/mol]       0.00094418 [Eh]
    Vibrational H           7.557 [kcal/mol]       31.618 [kJ/mol]       0.01204265 [Eh]
  Correction H              9.631 [kcal/mol]       40.294 [kJ/mol]       0.01534730 [Eh]
  Total H, Enthalpy at  298.15 [K]                                    -188.61367022 [Eh]

  Gibbs free energy, G = H - T * S
    Electronic G            0.000 [kcal/mol]        0.000 [kJ/mol]       0.00000000 [Eh]
    Translational G        -9.631 [kcal/mol]      -40.296 [kJ/mol]      -0.01534777 [Eh]
    Rotational G           -3.302 [kcal/mol]      -13.817 [kJ/mol]      -0.00526245 [Eh]
    Vibrational G           7.356 [kcal/mol]       30.779 [kJ/mol]       0.01172302 [Eh]
  Correction G             -5.577 [kcal/mol]      -23.333 [kJ/mol]      -0.00888721 [Eh]
  Total G, Free enthalpy at  298.15 [K]                               -188.63790472 [Eh]

*** Psi4 exiting successfully. Buy a developer a beer!
