                               Psi4 1.3.2 release

  ==> Input File <==

--------------------------------------------------------------------------
memory 144 GB

molecule {
0 1
C 0.0000000000 0.0000000000 0.0000000000
O 0.0000000000 0.0000000000 1.1314000000
}

set dynamic_level 1
set basis cc-pV(Q+d)Z

optimize("wB97M-V")
frequencies("wB97M-V")
--------------------------------------------------------------------------

    Molecular point group: c2v
  Charge       = 0
  Multiplicity = 1
  Basis Set: CC-PV(Q+D)Z
    Blend: CC-PV(Q+D)Z
  Basis Set: (CC-PV(Q+D)Z AUX)
    Blend: CC-PVQZ-JKFIT
  @DF-RKS Final Energy:  -113.34228799323010
    Total Energy =                       -113.3422879932301157
    Molecular point group: c2v
  Basis Set: CC-PV(Q+D)Z
    Blend: CC-PV(Q+D)Z
  Basis Set: (CC-PV(Q+D)Z AUX)
    Blend: CC-PVQZ-JKFIT
  @DF-RKS Final Energy:  -113.34224811644620
    Total Energy =                       -113.3422481164461857
  Basis Set: CC-PV(Q+D)Z
    Blend: CC-PV(Q+D)Z
  Basis Set: (CC-PV(Q+D)Z AUX)
    Blend: CC-PVQZ-JKFIT
  @DF-RKS Final Energy:  -113.34232338363279
    Total Energy =                       -113.3423233836327881
  Basis Set: CC-PV(Q+D)Z
    Blend: CC-PV(Q+D)Z
  Basis Set: (CC-PV(Q+D)Z AUX)
    Blend: CC-PVQZ-JKFIT
  @DF-RKS Final Energy:  -113.34243944597014
    Total Energy =                       -113.3424394459701574
  @DF-RKS Final Energy:  -113.34243140447589
    Total Energy =                       -113.3424314044758887
  @DF-RKS Final Energy:  -113.34244277736693
    Total Energy =                       -113.3424427773669265
  @DF-RKS Final Energy:  -113.34244287314222
    Total Energy =                       -113.3424428731422324
  @DF-RKS Final Energy:  -113.34244066205348
    Total Energy =                       -113.3424406620534768
  @DF-RKS Final Energy:  -113.34244033348151
    Total Energy =                       -113.3424403334815054
  **** Optimization is complete! (in 3 steps) ****
    Final optimized geometry and variables:
  @DF-RKS Final Energy:  -113.34244287314218
    Total Energy =                       -113.3424428731421898
  @DF-RKS Final Energy:  -113.34244066205363
    Total Energy =                       -113.3424406620536331
  Basis Set: CC-PV(Q+D)Z
    Blend: CC-PV(Q+D)Z
  Basis Set: (CC-PV(Q+D)Z AUX)
    Blend: CC-PVQZ-JKFIT
  @DF-RKS Final Energy:  -113.34244033348155
    Total Energy =                       -113.3424403334815480
  Basis Set: CC-PV(Q+D)Z
    Blend: CC-PV(Q+D)Z
  Basis Set: (CC-PV(Q+D)Z AUX)
    Blend: CC-PVQZ-JKFIT
  @DF-RKS Final Energy:  -113.34244287314205
    Total Energy =                       -113.3424428731420477
  Multiplicity = 1
  Basis Set: CC-PV(Q+D)Z
    Blend: CC-PV(Q+D)Z
  Basis Set: (CC-PV(Q+D)Z AUX)
    Blend: CC-PVQZ-JKFIT
  @DF-RKS Final Energy:  -113.34244066205345
    Total Energy =                       -113.3424406620534484
    Molecular point group: c2v

    Geometry (in Angstrom), charge = 0, multiplicity = 1:

       Center              X                  Y                   Z               Mass
    ------------   -----------------  -----------------  -----------------  -----------------
         C            0.000000000000     0.000000000000    -0.641122805559    12.000000000000
         O            0.000000000000     0.000000000000     0.480994981823    15.994914619570

  Charge       = 0
  Multiplicity = 1
  Basis Set: CC-PV(Q+D)Z
    Blend: CC-PV(Q+D)Z
  Basis Set: (CC-PV(Q+D)Z AUX)
    Blend: CC-PVQZ-JKFIT

    Orbital Energies [Eh]
    ---------------------

    Doubly Occupied:

       1A1   -19.436773     2A1   -10.457631     3A1    -1.297709
       4A1    -0.693390     1B1    -0.587419     1B2    -0.587419
       5A1    -0.486367

  @DF-RKS Final Energy:  -113.34244033348155

   => Energetics <=

    Nuclear Repulsion Energy =             22.6362209010352444
    One-Electron Energy =                -198.5515332559961621
    Two-Electron Energy =                  72.5723020766399713
    DFT Exchange-Correlation Energy =     -10.0585512551473428
    Empirical Dispersion Energy =           0.0000000000000000
    VV10 Nonlocal Energy =                  0.0591211999867336
    Total Energy =                       -113.3424403334815480

  Dipole Moment: [D]
     X:     0.0000      Y:     0.0000      Z:     0.0924     Total:     0.0924

  Vibration                       6
  Freq [cm^-1]                2240.8631
  Irrep                           A1
  Reduced mass [u]             13.4388
  Force const [mDyne/A]        39.7594

  ==> Thermochemistry Components <==

  Entropy, S
    Electronic S            0.000 [cal/(mol K)]        0.000 [J/(mol K)]       0.00000000 [mEh/K] (multiplicity = 1)
    Translational S        35.923 [cal/(mol K)]      150.302 [J/(mol K)]       0.05724692 [mEh/K] (mol. weight = 27.9949 [u], P = 101325.00 [Pa])
    Rotational S           11.260 [cal/(mol K)]       47.113 [J/(mol K)]       0.01794438 [mEh/K] (symmetry no. = 1)
    Vibrational S           0.000 [cal/(mol K)]        0.002 [J/(mol K)]       0.00000075 [mEh/K]
  Total S                  47.184 [cal/(mol K)]      197.417 [J/(mol K)]       0.07519206 [mEh/K]
  Correction S              0.000 [cal/(mol K)]        0.000 [J/(mol K)]       0.00000000 [mEh/K]

  Constant volume heat capacity, Cv
    Electronic Cv           0.000 [cal/(mol K)]        0.000 [J/(mol K)]       0.00000000 [mEh/K]
    Translational Cv        2.981 [cal/(mol K)]       12.472 [J/(mol K)]       0.00475022 [mEh/K]
    Rotational Cv           1.987 [cal/(mol K)]        8.314 [J/(mol K)]       0.00316681 [mEh/K]
    Vibrational Cv          0.005 [cal/(mol K)]        0.020 [J/(mol K)]       0.00000745 [mEh/K]
  Total Cv                  4.973 [cal/(mol K)]       20.806 [J/(mol K)]       0.00792448 [mEh/K]
  Correction Cv             0.000 [cal/(mol K)]        0.000 [J/(mol K)]       0.00000000 [mEh/K]

  Constant pressure heat capacity, Cp
    Electronic Cp           0.000 [cal/(mol K)]        0.000 [J/(mol K)]       0.00000000 [mEh/K]
    Translational Cp        4.968 [cal/(mol K)]       20.786 [J/(mol K)]       0.00791703 [mEh/K]
    Rotational Cp           1.987 [cal/(mol K)]        8.314 [J/(mol K)]       0.00316681 [mEh/K]
    Vibrational Cp          0.005 [cal/(mol K)]        0.020 [J/(mol K)]       0.00000745 [mEh/K]
  Total Cp                  6.960 [cal/(mol K)]       29.120 [J/(mol K)]       0.01109129 [mEh/K]
  Correction Cp             0.000 [cal/(mol K)]        0.000 [J/(mol K)]       0.00000000 [mEh/K]

  ==> Thermochemistry Energy Analysis <==

  Raw electronic energy, E0
  Total E0, Electronic energy at well bottom at 0 [K]                 -113.34244287 [Eh]

  Zero-point energy, ZPE_vib = Sum_i nu_i / 2
    Electronic ZPE          0.000 [kcal/mol]        0.000 [kJ/mol]       0.00000000 [Eh]
    Translational ZPE       0.000 [kcal/mol]        0.000 [kJ/mol]       0.00000000 [Eh]
    Rotational ZPE          0.000 [kcal/mol]        0.000 [kJ/mol]       0.00000000 [Eh]
    Vibrational ZPE         3.203 [kcal/mol]       13.403 [kJ/mol]       0.00510506 [Eh]        1120.432 [cm^-1]
  Correction ZPE            3.203 [kcal/mol]       13.403 [kJ/mol]       0.00510506 [Eh]        1120.432 [cm^-1]
  Total ZPE, Electronic energy at 0 [K]                               -113.33733781 [Eh]

  Thermal Energy, E (includes ZPE)
    Electronic E            0.000 [kcal/mol]        0.000 [kJ/mol]       0.00000000 [Eh]
    Translational E         0.889 [kcal/mol]        3.718 [kJ/mol]       0.00141628 [Eh]
    Rotational E            0.592 [kcal/mol]        2.479 [kJ/mol]       0.00094418 [Eh]
    Vibrational E           3.204 [kcal/mol]       13.404 [kJ/mol]       0.00510527 [Eh]
  Correction E              4.685 [kcal/mol]       19.601 [kJ/mol]       0.00746573 [Eh]
  Total E, Electronic energy at  298.15 [K]                           -113.33497714 [Eh]

  Enthalpy, H_trans = E_trans + k_B * T
    Electronic H            0.000 [kcal/mol]        0.000 [kJ/mol]       0.00000000 [Eh]
    Translational H         1.481 [kcal/mol]        6.197 [kJ/mol]       0.00236046 [Eh]
    Rotational H            0.592 [kcal/mol]        2.479 [kJ/mol]       0.00094418 [Eh]
    Vibrational H           3.204 [kcal/mol]       13.404 [kJ/mol]       0.00510527 [Eh]
  Correction H              5.277 [kcal/mol]       22.080 [kJ/mol]       0.00840991 [Eh]
  Total H, Enthalpy at  298.15 [K]                                    -113.33403296 [Eh]

  Gibbs free energy, G = H - T * S
    Electronic G            0.000 [kcal/mol]        0.000 [kJ/mol]       0.00000000 [Eh]
    Translational G        -9.229 [kcal/mol]      -38.615 [kJ/mol]      -0.01470771 [Eh]
    Rotational G           -2.765 [kcal/mol]      -11.568 [kJ/mol]      -0.00440593 [Eh]
    Vibrational G           3.203 [kcal/mol]       13.403 [kJ/mol]       0.00510504 [Eh]
  Correction G             -8.791 [kcal/mol]      -36.780 [kJ/mol]      -0.01400860 [Eh]
  Total G, Free enthalpy at  298.15 [K]                               -113.35645147 [Eh]

*** Psi4 exiting successfully. Buy a developer a beer!
