                               Psi4 1.3.2 release

  ==> Input File <==

--------------------------------------------------------------------------
memory 144 GB

molecule {
0 1
C 0.0000000000 0.0000000000 0.0000000000
S 0.0000000000 0.0000000000 1.5576337400
S 0.0000000000 0.0000000000 -1.5576337400
}

set dynamic_level 1
set basis cc-pV(Q+d)Z

optimize("wB97M-V")
frequencies("wB97M-V")
--------------------------------------------------------------------------

    Molecular point group: d2h
  Charge       = 0
  Multiplicity = 1
  Basis Set: CC-PV(Q+D)Z
    Blend: CC-PV(Q+D)Z
  Basis Set: (CC-PV(Q+D)Z AUX)
    Blend: CC-PVQZ-JKFIT
  @DF-RKS Final Energy:  -834.49756253424039
    Total Energy =                       -834.4975625342405010
    Molecular point group: d2h
  Basis Set: CC-PV(Q+D)Z
    Blend: CC-PV(Q+D)Z
  Basis Set: (CC-PV(Q+D)Z AUX)
    Blend: CC-PVQZ-JKFIT
  @DF-RKS Final Energy:  -834.49757646471608
    Total Energy =                       -834.4975764647160759
  Basis Set: CC-PV(Q+D)Z
    Blend: CC-PV(Q+D)Z
  Basis Set: (CC-PV(Q+D)Z AUX)
    Blend: CC-PVQZ-JKFIT
  @DF-RKS Final Energy:  -834.49754817322673
    Total Energy =                       -834.4975481732266189
  Basis Set: CC-PV(Q+D)Z
    Blend: CC-PV(Q+D)Z
  Basis Set: (CC-PV(Q+D)Z AUX)
    Blend: CC-PVQZ-JKFIT
  @DF-RKS Final Energy:  -834.49778952483121
    Total Energy =                       -834.4977895248312052
  @DF-RKS Final Energy:  -834.49779019326672
    Total Energy =                       -834.4977901932666100
  @DF-RKS Final Energy:  -834.49778840265628
    Total Energy =                       -834.4977884026561696
  @DF-RKS Final Energy:  -834.49779040595797
    Total Energy =                       -834.4977904059579714
  @DF-RKS Final Energy:  -834.49779015233935
    Total Energy =                       -834.4977901523393484
  @DF-RKS Final Energy:  -834.49779020329856
    Total Energy =                       -834.4977902032985639
  **** Optimization is complete! (in 3 steps) ****
    Final optimized geometry and variables:
  @DF-RKS Final Energy:  -834.49779040595797
    Total Energy =                       -834.4977904059581988
  @DF-RKS Final Energy:  -834.49779015233923
    Total Energy =                       -834.4977901523391211
  @DF-RKS Final Energy:  -834.49779020329800
    Total Energy =                       -834.4977902032981092
  @DF-RKS Final Energy:  -834.49779040595820
    Total Energy =                       -834.4977904059583125
  @DF-RKS Final Energy:  -834.49779015233923
    Total Energy =                       -834.4977901523391211
  Basis Set: CC-PV(Q+D)Z
    Blend: CC-PV(Q+D)Z
  Basis Set: (CC-PV(Q+D)Z AUX)
    Blend: CC-PVQZ-JKFIT
  @DF-RKS Final Energy:  -834.49779020329856
    Total Energy =                       -834.4977902032986776
  Basis Set: CC-PV(Q+D)Z
    Blend: CC-PV(Q+D)Z
  Basis Set: (CC-PV(Q+D)Z AUX)
    Blend: CC-PVQZ-JKFIT
  @DF-RKS Final Energy:  -834.49778923490749
    Total Energy =                       -834.4977892349073727
  Multiplicity = 1
  Basis Set: CC-PV(Q+D)Z
    Blend: CC-PV(Q+D)Z
  Basis Set: (CC-PV(Q+D)Z AUX)
    Blend: CC-PVQZ-JKFIT
  @DF-RKS Final Energy:  -834.49779032399169
    Total Energy =                       -834.4977903239918078
    Molecular point group: c2v

    Geometry (in Angstrom), charge = 0, multiplicity = 1:

       Center              X                  Y                   Z               Mass
    ------------   -----------------  -----------------  -----------------  -----------------
         C           -0.000700864006     0.000000000000     0.000000000000    12.000000000000
         S            0.000131526794     0.000000000000     1.547055566062    31.972071174400
         S            0.000131526794     0.000000000000    -1.547055566062    31.972071174400

  Charge       = 0
  Multiplicity = 1
  Basis Set: CC-PV(Q+D)Z
    Blend: CC-PV(Q+D)Z
  Basis Set: (CC-PV(Q+D)Z AUX)
    Blend: CC-PVQZ-JKFIT

    Orbital Energies [Eh]
    ---------------------

    Doubly Occupied:

       1B2   -89.234386     1A1   -89.234385     2A1   -10.475400
       2B2    -8.150427     3A1    -8.150407     3B2    -6.059434
       4A1    -6.059433     1A2    -6.055910     4B2    -6.055910
       1B1    -6.055909     5A1    -6.055909     6A1    -0.985755
       5B2    -0.890516     7A1    -0.615056     6B2    -0.531235
       8A1    -0.497539     2B1    -0.497539     2A2    -0.358272
       7B2    -0.358272

  @DF-RKS Final Energy:  -834.49779032345987

   => Energetics <=

    Nuclear Repulsion Energy =            109.4574082680037463
    One-Electron Energy =               -1368.0731022679829039
    Two-Electron Energy =                 467.4031501532084008
    DFT Exchange-Correlation Energy =     -43.4422449609213004
    Empirical Dispersion Energy =           0.0000000000000000
    VV10 Nonlocal Energy =                  0.1569984842322696
    Total Energy =                       -834.4977903234597534

  Dipole Moment: [D]
     X:     0.0007      Y:     0.0000      Z:     0.0000     Total:     0.0007

  Vibration                       6                   7                   8
  Freq [cm^-1]                 416.2627            417.6109            694.4634
  Irrep                          B2u                 B3u                  Ag
  Reduced mass [u]             13.3142             13.3142             31.9721
  Force const [mDyne/A]         1.3593              1.3681              9.0849

  Vibration                       9
  Freq [cm^-1]                1573.3927
  Irrep                          B1u
  Reduced mass [u]             13.3142
  Force const [mDyne/A]        19.4195

  ==> Thermochemistry Components <==

  Entropy, S
    Electronic S            0.000 [cal/(mol K)]        0.000 [J/(mol K)]       0.00000000 [mEh/K] (multiplicity = 1)
    Translational S        38.898 [cal/(mol K)]      162.748 [J/(mol K)]       0.06198752 [mEh/K] (mol. weight = 75.9441 [u], P = 101325.00 [Pa])
    Rotational S           15.593 [cal/(mol K)]       65.240 [J/(mol K)]       0.02484860 [mEh/K] (symmetry no. = 2)
    Vibrational S           2.126 [cal/(mol K)]        8.896 [J/(mol K)]       0.00338832 [mEh/K]
  Total S                  56.617 [cal/(mol K)]      236.884 [J/(mol K)]       0.09022444 [mEh/K]
  Correction S              0.000 [cal/(mol K)]        0.000 [J/(mol K)]       0.00000000 [mEh/K]

  Constant volume heat capacity, Cv
    Electronic Cv           0.000 [cal/(mol K)]        0.000 [J/(mol K)]       0.00000000 [mEh/K]
    Translational Cv        2.981 [cal/(mol K)]       12.472 [J/(mol K)]       0.00475022 [mEh/K]
    Rotational Cv           1.987 [cal/(mol K)]        8.314 [J/(mol K)]       0.00316681 [mEh/K]
    Vibrational Cv          3.765 [cal/(mol K)]       15.751 [J/(mol K)]       0.00599921 [mEh/K]
  Total Cv                  8.733 [cal/(mol K)]       36.537 [J/(mol K)]       0.01391624 [mEh/K]
  Correction Cv             0.000 [cal/(mol K)]        0.000 [J/(mol K)]       0.00000000 [mEh/K]

  Constant pressure heat capacity, Cp
    Electronic Cp           0.000 [cal/(mol K)]        0.000 [J/(mol K)]       0.00000000 [mEh/K]
    Translational Cp        4.968 [cal/(mol K)]       20.786 [J/(mol K)]       0.00791703 [mEh/K]
    Rotational Cp           1.987 [cal/(mol K)]        8.314 [J/(mol K)]       0.00316681 [mEh/K]
    Vibrational Cp          3.765 [cal/(mol K)]       15.751 [J/(mol K)]       0.00599921 [mEh/K]
  Total Cp                 10.720 [cal/(mol K)]       44.852 [J/(mol K)]       0.01708305 [mEh/K]
  Correction Cp             0.000 [cal/(mol K)]        0.000 [J/(mol K)]       0.00000000 [mEh/K]

  ==> Thermochemistry Energy Analysis <==

  Raw electronic energy, E0
  Total E0, Electronic energy at well bottom at 0 [K]                 -834.49779041 [Eh]

  Zero-point energy, ZPE_vib = Sum_i nu_i / 2
    Electronic ZPE          0.000 [kcal/mol]        0.000 [kJ/mol]       0.00000000 [Eh]
    Translational ZPE       0.000 [kcal/mol]        0.000 [kJ/mol]       0.00000000 [Eh]
    Rotational ZPE          0.000 [kcal/mol]        0.000 [kJ/mol]       0.00000000 [Eh]
    Vibrational ZPE         4.434 [kcal/mol]       18.552 [kJ/mol]       0.00706626 [Eh]        1550.865 [cm^-1]
  Correction ZPE            4.434 [kcal/mol]       18.552 [kJ/mol]       0.00706626 [Eh]        1550.865 [cm^-1]
  Total ZPE, Electronic energy at 0 [K]                               -834.49072415 [Eh]

  Thermal Energy, E (includes ZPE)
    Electronic E            0.000 [kcal/mol]        0.000 [kJ/mol]       0.00000000 [Eh]
    Translational E         0.889 [kcal/mol]        3.718 [kJ/mol]       0.00141628 [Eh]
    Rotational E            0.592 [kcal/mol]        2.479 [kJ/mol]       0.00094418 [Eh]
    Vibrational E           4.877 [kcal/mol]       20.403 [kJ/mol]       0.00777126 [Eh]
  Correction E              6.358 [kcal/mol]       26.601 [kJ/mol]       0.01013172 [Eh]
  Total E, Electronic energy at  298.15 [K]                           -834.48765868 [Eh]

  Enthalpy, H_trans = E_trans + k_B * T
    Electronic H            0.000 [kcal/mol]        0.000 [kJ/mol]       0.00000000 [Eh]
    Translational H         1.481 [kcal/mol]        6.197 [kJ/mol]       0.00236046 [Eh]
    Rotational H            0.592 [kcal/mol]        2.479 [kJ/mol]       0.00094418 [Eh]
    Vibrational H           4.877 [kcal/mol]       20.403 [kJ/mol]       0.00777126 [Eh]
  Correction H              6.950 [kcal/mol]       29.080 [kJ/mol]       0.01107591 [Eh]
  Total H, Enthalpy at  298.15 [K]                                    -834.48671450 [Eh]

  Gibbs free energy, G = H - T * S
    Electronic G            0.000 [kcal/mol]        0.000 [kJ/mol]       0.00000000 [Eh]
    Translational G       -10.116 [kcal/mol]      -42.326 [kJ/mol]      -0.01612112 [Eh]
    Rotational G           -4.056 [kcal/mol]      -16.972 [kJ/mol]      -0.00646443 [Eh]
    Vibrational G           4.243 [kcal/mol]       17.751 [kJ/mol]       0.00676103 [Eh]
  Correction G             -9.930 [kcal/mol]      -41.547 [kJ/mol]      -0.01582451 [Eh]
  Total G, Free enthalpy at  298.15 [K]                               -834.51361492 [Eh]

*** Psi4 exiting successfully. Buy a developer a beer!
