                               Psi4 1.3.2 release

  ==> Input File <==

--------------------------------------------------------------------------
memory 144 GB

molecule {
0 1
C 0.0000000000 0.0000000000 0.0000000000
S 0.0000000000 0.0000000000 1.5415329200
}

set dynamic_level 1
set basis cc-pV(Q+d)Z

optimize("wB97M-V")
frequencies("wB97M-V")
--------------------------------------------------------------------------

    Molecular point group: c2v
  Charge       = 0
  Multiplicity = 1
  Basis Set: CC-PV(Q+D)Z
    Blend: CC-PV(Q+D)Z
  Basis Set: (CC-PV(Q+D)Z AUX)
    Blend: CC-PVQZ-JKFIT
  @DF-RKS Final Energy:  -436.22225448391362
    Total Energy =                       -436.2222544839135594
    Molecular point group: c2v
  Basis Set: CC-PV(Q+D)Z
    Blend: CC-PV(Q+D)Z
  Basis Set: (CC-PV(Q+D)Z AUX)
    Blend: CC-PVQZ-JKFIT
  @DF-RKS Final Energy:  -436.22221870268623
    Total Energy =                       -436.2222187026862343
  Basis Set: CC-PV(Q+D)Z
    Blend: CC-PV(Q+D)Z
  Basis Set: (CC-PV(Q+D)Z AUX)
    Blend: CC-PVQZ-JKFIT
  @DF-RKS Final Energy:  -436.22228869456114
    Total Energy =                       -436.2222886945611435
  Basis Set: CC-PV(Q+D)Z
    Blend: CC-PV(Q+D)Z
  Basis Set: (CC-PV(Q+D)Z AUX)
    Blend: CC-PVQZ-JKFIT
  @DF-RKS Final Energy:  -436.22262703272941
    Total Energy =                       -436.2226270327292923
  @DF-RKS Final Energy:  -436.22262230116547
    Total Energy =                       -436.2226223011654724
  @DF-RKS Final Energy:  -436.22263004666161
    Total Energy =                       -436.2226300466615498
  @DF-RKS Final Energy:  -436.22263137421021
    Total Energy =                       -436.2226313742102661
  @DF-RKS Final Energy:  -436.22263070478471
    Total Energy =                       -436.2226307047846490
  @DF-RKS Final Energy:  -436.22263030610168
    Total Energy =                       -436.2226303061016210
  **** Optimization is complete! (in 3 steps) ****
    Final optimized geometry and variables:
  @DF-RKS Final Energy:  -436.22263137420970
    Total Energy =                       -436.2226313742097545
  @DF-RKS Final Energy:  -436.22263070475515
    Total Energy =                       -436.2226307047551472
  Basis Set: CC-PV(Q+D)Z
    Blend: CC-PV(Q+D)Z
  Basis Set: (CC-PV(Q+D)Z AUX)
    Blend: CC-PVQZ-JKFIT
  @DF-RKS Final Energy:  -436.22263030610156
    Total Energy =                       -436.2226303061015642
  Basis Set: CC-PV(Q+D)Z
    Blend: CC-PV(Q+D)Z
  Basis Set: (CC-PV(Q+D)Z AUX)
    Blend: CC-PVQZ-JKFIT
  @DF-RKS Final Energy:  -436.22263137420998
    Total Energy =                       -436.2226313742099819
  Multiplicity = 1
  Basis Set: CC-PV(Q+D)Z
    Blend: CC-PV(Q+D)Z
  Basis Set: (CC-PV(Q+D)Z AUX)
    Blend: CC-PVQZ-JKFIT
  @DF-RKS Final Energy:  -436.22263070475452
    Total Energy =                       -436.2226307047545220
    Molecular point group: c2v

    Geometry (in Angstrom), charge = 0, multiplicity = 1:

       Center              X                  Y                   Z               Mass
    ------------   -----------------  -----------------  -----------------  -----------------
         C            0.000000000000     0.000000000000    -1.106325175018    12.000000000000
         S            0.000000000000     0.000000000000     0.415234347121    31.972071174400

  Charge       = 0
  Multiplicity = 1
  Basis Set: CC-PV(Q+D)Z
    Blend: CC-PV(Q+D)Z
  Basis Set: (CC-PV(Q+D)Z AUX)
    Blend: CC-PVQZ-JKFIT

    Orbital Energies [Eh]
    ---------------------

    Doubly Occupied:

       1A1   -89.251192     2A1   -10.440403     3A1    -8.170220
       1B1    -6.077053     1B2    -6.077053     4A1    -6.075854
       5A1    -0.959447     6A1    -0.629050     2B1    -0.452266
       2B2    -0.452266     7A1    -0.412683

  @DF-RKS Final Energy:  -436.22263030610230

   => Energetics <=

    Nuclear Repulsion Energy =             33.3874629846326982
    One-Electron Energy =                -666.4661759661814813
    Two-Electron Energy =                 220.3334139946796597
    DFT Exchange-Correlation Energy =     -23.5693722264863084
    Empirical Dispersion Energy =           0.0000000000000000
    VV10 Nonlocal Energy =                  0.0920409072530920
    Total Energy =                       -436.2226303061023032

  Dipole Moment: [D]
     X:     0.0000      Y:     0.0000      Z:     1.9860     Total:     1.9860

  Vibration                       6
  Freq [cm^-1]                1355.2037
  Irrep                           A1
  Reduced mass [u]             14.4661
  Force const [mDyne/A]        15.6535

  ==> Thermochemistry Components <==

  Entropy, S
    Electronic S            0.000 [cal/(mol K)]        0.000 [J/(mol K)]       0.00000000 [mEh/K] (multiplicity = 1)
    Translational S        37.269 [cal/(mol K)]      155.933 [J/(mol K)]       0.05939180 [mEh/K] (mol. weight = 43.9721 [u], P = 101325.00 [Pa])
    Rotational S           12.948 [cal/(mol K)]       54.176 [J/(mol K)]       0.02063450 [mEh/K] (symmetry no. = 1)
    Vibrational S           0.022 [cal/(mol K)]        0.091 [J/(mol K)]       0.00003454 [mEh/K]
  Total S                  50.239 [cal/(mol K)]      210.200 [J/(mol K)]       0.08006084 [mEh/K]
  Correction S              0.000 [cal/(mol K)]        0.000 [J/(mol K)]       0.00000000 [mEh/K]

  Constant volume heat capacity, Cv
    Electronic Cv           0.000 [cal/(mol K)]        0.000 [J/(mol K)]       0.00000000 [mEh/K]
    Translational Cv        2.981 [cal/(mol K)]       12.472 [J/(mol K)]       0.00475022 [mEh/K]
    Rotational Cv           1.987 [cal/(mol K)]        8.314 [J/(mol K)]       0.00316681 [mEh/K]
    Vibrational Cv          0.123 [cal/(mol K)]        0.515 [J/(mol K)]       0.00019625 [mEh/K]
  Total Cv                  5.091 [cal/(mol K)]       21.301 [J/(mol K)]       0.00811328 [mEh/K]
  Correction Cv             0.000 [cal/(mol K)]        0.000 [J/(mol K)]       0.00000000 [mEh/K]

  Constant pressure heat capacity, Cp
    Electronic Cp           0.000 [cal/(mol K)]        0.000 [J/(mol K)]       0.00000000 [mEh/K]
    Translational Cp        4.968 [cal/(mol K)]       20.786 [J/(mol K)]       0.00791703 [mEh/K]
    Rotational Cp           1.987 [cal/(mol K)]        8.314 [J/(mol K)]       0.00316681 [mEh/K]
    Vibrational Cp          0.123 [cal/(mol K)]        0.515 [J/(mol K)]       0.00019625 [mEh/K]
  Total Cp                  7.078 [cal/(mol K)]       29.616 [J/(mol K)]       0.01128009 [mEh/K]
  Correction Cp             0.000 [cal/(mol K)]        0.000 [J/(mol K)]       0.00000000 [mEh/K]

  ==> Thermochemistry Energy Analysis <==

  Raw electronic energy, E0
  Total E0, Electronic energy at well bottom at 0 [K]                 -436.22263137 [Eh]

  Zero-point energy, ZPE_vib = Sum_i nu_i / 2
    Electronic ZPE          0.000 [kcal/mol]        0.000 [kJ/mol]       0.00000000 [Eh]
    Translational ZPE       0.000 [kcal/mol]        0.000 [kJ/mol]       0.00000000 [Eh]
    Rotational ZPE          0.000 [kcal/mol]        0.000 [kJ/mol]       0.00000000 [Eh]
    Vibrational ZPE         1.937 [kcal/mol]        8.106 [kJ/mol]       0.00308738 [Eh]         677.602 [cm^-1]
  Correction ZPE            1.937 [kcal/mol]        8.106 [kJ/mol]       0.00308738 [Eh]         677.602 [cm^-1]
  Total ZPE, Electronic energy at 0 [K]                               -436.21954399 [Eh]

  Thermal Energy, E (includes ZPE)
    Electronic E            0.000 [kcal/mol]        0.000 [kJ/mol]       0.00000000 [Eh]
    Translational E         0.889 [kcal/mol]        3.718 [kJ/mol]       0.00141628 [Eh]
    Rotational E            0.592 [kcal/mol]        2.479 [kJ/mol]       0.00094418 [Eh]
    Vibrational E           1.943 [kcal/mol]        8.129 [kJ/mol]       0.00309632 [Eh]
  Correction E              3.424 [kcal/mol]       14.327 [kJ/mol]       0.00545678 [Eh]
  Total E, Electronic energy at  298.15 [K]                           -436.21717460 [Eh]

  Enthalpy, H_trans = E_trans + k_B * T
    Electronic H            0.000 [kcal/mol]        0.000 [kJ/mol]       0.00000000 [Eh]
    Translational H         1.481 [kcal/mol]        6.197 [kJ/mol]       0.00236046 [Eh]
    Rotational H            0.592 [kcal/mol]        2.479 [kJ/mol]       0.00094418 [Eh]
    Vibrational H           1.943 [kcal/mol]        8.129 [kJ/mol]       0.00309632 [Eh]
  Correction H              4.017 [kcal/mol]       16.806 [kJ/mol]       0.00640096 [Eh]
  Total H, Enthalpy at  298.15 [K]                                    -436.21623041 [Eh]

  Gibbs free energy, G = H - T * S
    Electronic G            0.000 [kcal/mol]        0.000 [kJ/mol]       0.00000000 [Eh]
    Translational G        -9.631 [kcal/mol]      -40.294 [kJ/mol]      -0.01534720 [Eh]
    Rotational G           -3.268 [kcal/mol]      -13.674 [kJ/mol]      -0.00520799 [Eh]
    Vibrational G           1.937 [kcal/mol]        8.102 [kJ/mol]       0.00308602 [Eh]
  Correction G            -10.962 [kcal/mol]      -45.865 [kJ/mol]      -0.01746918 [Eh]
  Total G, Free enthalpy at  298.15 [K]                               -436.24010055 [Eh]

*** Psi4 exiting successfully. Buy a developer a beer!
