                               Psi4 1.3.2 release

  ==> Input File <==

--------------------------------------------------------------------------
memory 144 GB

molecule {
0 1
F 0.0000000000 0.0000000000 0.0000000000
F 0.0000000000 0.0000000000 1.4129000000
}

set dynamic_level 1
set basis cc-pV(Q+d)Z

optimize("wB97M-V")
frequencies("wB97M-V")
--------------------------------------------------------------------------

    Molecular point group: d2h
  Charge       = 0
  Multiplicity = 1
  Basis Set: CC-PV(Q+D)Z
    Blend: CC-PV(Q+D)Z
  Basis Set: (CC-PV(Q+D)Z AUX)
    Blend: CC-PVQZ-JKFIT
  @DF-RKS Final Energy:  -199.55468830454166
    Total Energy =                       -199.5546883045416564
    Molecular point group: d2h
  Basis Set: CC-PV(Q+D)Z
    Blend: CC-PV(Q+D)Z
  Basis Set: (CC-PV(Q+D)Z AUX)
    Blend: CC-PVQZ-JKFIT
  @DF-RKS Final Energy:  -199.55464979405190
    Total Energy =                       -199.5546497940518975
  Basis Set: CC-PV(Q+D)Z
    Blend: CC-PV(Q+D)Z
  Basis Set: (CC-PV(Q+D)Z AUX)
    Blend: CC-PVQZ-JKFIT
  @DF-RKS Final Energy:  -199.55472586638422
    Total Energy =                       -199.5547258663842172
  Basis Set: CC-PV(Q+D)Z
    Blend: CC-PV(Q+D)Z
  Basis Set: (CC-PV(Q+D)Z AUX)
    Blend: CC-PVQZ-JKFIT
  @DF-RKS Final Energy:  -199.55539617181145
    Total Energy =                       -199.5553961718115090
  @DF-RKS Final Energy:  -199.55539184978673
    Total Energy =                       -199.5553918497867301
  @DF-RKS Final Energy:  -199.55539936652585
    Total Energy =                       -199.5553993665258474
  @DF-RKS Final Energy:  -199.55540234497130
    Total Energy =                       -199.5554023449712417
  @DF-RKS Final Energy:  -199.55540214096615
    Total Energy =                       -199.5554021409661516
  @DF-RKS Final Energy:  -199.55540140041097
    Total Energy =                       -199.5554014004110002
  **** Optimization is complete! (in 3 steps) ****
    Final optimized geometry and variables:
  @DF-RKS Final Energy:  -199.55540234497147
    Total Energy =                       -199.5554023449714691
  @DF-RKS Final Energy:  -199.55540214096607
    Total Energy =                       -199.5554021409660663
  Basis Set: CC-PV(Q+D)Z
    Blend: CC-PV(Q+D)Z
  Basis Set: (CC-PV(Q+D)Z AUX)
    Blend: CC-PVQZ-JKFIT
  @DF-RKS Final Energy:  -199.55540140041083
    Total Energy =                       -199.5554014004108296
  Basis Set: CC-PV(Q+D)Z
    Blend: CC-PV(Q+D)Z
  Basis Set: (CC-PV(Q+D)Z AUX)
    Blend: CC-PVQZ-JKFIT
  @DF-RKS Final Energy:  -199.55540234497141
    Total Energy =                       -199.5554023449714123
  Multiplicity = 1
  Basis Set: CC-PV(Q+D)Z
    Blend: CC-PV(Q+D)Z
  Basis Set: (CC-PV(Q+D)Z AUX)
    Blend: CC-PVQZ-JKFIT
  @DF-RKS Final Energy:  -199.55540214096607
    Total Energy =                       -199.5554021409660379
    Molecular point group: d2h

    Geometry (in Angstrom), charge = 0, multiplicity = 1:

       Center              X                  Y                   Z               Mass
    ------------   -----------------  -----------------  -----------------  -----------------
         F            0.000000000000     0.000000000000    -0.690259024095    18.998403162730
         F            0.000000000000     0.000000000000     0.690259024095    18.998403162730

  Charge       = 0
  Multiplicity = 1
  Basis Set: CC-PV(Q+D)Z
    Blend: CC-PV(Q+D)Z
  Basis Set: (CC-PV(Q+D)Z AUX)
    Blend: CC-PVQZ-JKFIT

    Orbital Energies [Eh]
    ---------------------

    Doubly Occupied:

       1Ag   -25.007593     1B1u  -25.007581     2Ag    -1.497188
       2B1u   -1.236187     3Ag    -0.712062     1B2u   -0.663153
       1B3u   -0.663153     1B3g   -0.520464     1B2g   -0.520464

  @DF-RKS Final Energy:  -199.55540140041089

   => Energetics <=

    Nuclear Repulsion Energy =             31.0487458823426543
    One-Electron Energy =                -339.9258460638044994
    Two-Electron Energy =                 124.5885458172536175
    DFT Exchange-Correlation Energy =     -15.3438794119651689
    Empirical Dispersion Energy =           0.0000000000000000
    VV10 Nonlocal Energy =                  0.0770323757625170
    Total Energy =                       -199.5554014004108865

  Dipole Moment: [D]
     X:     0.0000      Y:     0.0000      Z:     0.0000     Total:     0.0000

  Vibration                       6
  Freq [cm^-1]                1101.8240
  Irrep                           Ag
  Reduced mass [u]             18.9984
  Force const [mDyne/A]        13.5891

  ==> Thermochemistry Components <==

  Entropy, S
    Electronic S            0.000 [cal/(mol K)]        0.000 [J/(mol K)]       0.00000000 [mEh/K] (multiplicity = 1)
    Translational S        36.834 [cal/(mol K)]      154.112 [J/(mol K)]       0.05869802 [mEh/K] (mol. weight = 37.9968 [u], P = 101325.00 [Pa])
    Rotational S           11.353 [cal/(mol K)]       47.502 [J/(mol K)]       0.01809269 [mEh/K] (symmetry no. = 2)
    Vibrational S           0.062 [cal/(mol K)]        0.259 [J/(mol K)]       0.00009861 [mEh/K]
  Total S                  48.249 [cal/(mol K)]      201.873 [J/(mol K)]       0.07688932 [mEh/K]
  Correction S              0.000 [cal/(mol K)]        0.000 [J/(mol K)]       0.00000000 [mEh/K]

  Constant volume heat capacity, Cv
    Electronic Cv           0.000 [cal/(mol K)]        0.000 [J/(mol K)]       0.00000000 [mEh/K]
    Translational Cv        2.981 [cal/(mol K)]       12.472 [J/(mol K)]       0.00475022 [mEh/K]
    Rotational Cv           1.987 [cal/(mol K)]        8.314 [J/(mol K)]       0.00316681 [mEh/K]
    Vibrational Cv          0.278 [cal/(mol K)]        1.165 [J/(mol K)]       0.00044368 [mEh/K]
  Total Cv                  5.246 [cal/(mol K)]       21.951 [J/(mol K)]       0.00836071 [mEh/K]
  Correction Cv             0.000 [cal/(mol K)]        0.000 [J/(mol K)]       0.00000000 [mEh/K]

  Constant pressure heat capacity, Cp
    Electronic Cp           0.000 [cal/(mol K)]        0.000 [J/(mol K)]       0.00000000 [mEh/K]
    Translational Cp        4.968 [cal/(mol K)]       20.786 [J/(mol K)]       0.00791703 [mEh/K]
    Rotational Cp           1.987 [cal/(mol K)]        8.314 [J/(mol K)]       0.00316681 [mEh/K]
    Vibrational Cp          0.278 [cal/(mol K)]        1.165 [J/(mol K)]       0.00044368 [mEh/K]
  Total Cp                  7.234 [cal/(mol K)]       30.265 [J/(mol K)]       0.01152752 [mEh/K]
  Correction Cp             0.000 [cal/(mol K)]        0.000 [J/(mol K)]       0.00000000 [mEh/K]

  ==> Thermochemistry Energy Analysis <==

  Raw electronic energy, E0
  Total E0, Electronic energy at well bottom at 0 [K]                 -199.55540234 [Eh]

  Zero-point energy, ZPE_vib = Sum_i nu_i / 2
    Electronic ZPE          0.000 [kcal/mol]        0.000 [kJ/mol]       0.00000000 [Eh]
    Translational ZPE       0.000 [kcal/mol]        0.000 [kJ/mol]       0.00000000 [Eh]
    Rotational ZPE          0.000 [kcal/mol]        0.000 [kJ/mol]       0.00000000 [Eh]
    Vibrational ZPE         1.575 [kcal/mol]        6.590 [kJ/mol]       0.00251014 [Eh]         550.912 [cm^-1]
  Correction ZPE            1.575 [kcal/mol]        6.590 [kJ/mol]       0.00251014 [Eh]         550.912 [cm^-1]
  Total ZPE, Electronic energy at 0 [K]                               -199.55289221 [Eh]

  Thermal Energy, E (includes ZPE)
    Electronic E            0.000 [kcal/mol]        0.000 [kJ/mol]       0.00000000 [Eh]
    Translational E         0.889 [kcal/mol]        3.718 [kJ/mol]       0.00141628 [Eh]
    Rotational E            0.592 [kcal/mol]        2.479 [kJ/mol]       0.00094418 [Eh]
    Vibrational E           1.591 [kcal/mol]        6.655 [kJ/mol]       0.00253490 [Eh]
  Correction E              3.072 [kcal/mol]       12.853 [kJ/mol]       0.00489536 [Eh]
  Total E, Electronic energy at  298.15 [K]                           -199.55050699 [Eh]

  Enthalpy, H_trans = E_trans + k_B * T
    Electronic H            0.000 [kcal/mol]        0.000 [kJ/mol]       0.00000000 [Eh]
    Translational H         1.481 [kcal/mol]        6.197 [kJ/mol]       0.00236046 [Eh]
    Rotational H            0.592 [kcal/mol]        2.479 [kJ/mol]       0.00094418 [Eh]
    Vibrational H           1.591 [kcal/mol]        6.655 [kJ/mol]       0.00253490 [Eh]
  Correction H              3.664 [kcal/mol]       15.332 [kJ/mol]       0.00583954 [Eh]
  Total H, Enthalpy at  298.15 [K]                                    -199.54956280 [Eh]

  Gibbs free energy, G = H - T * S
    Electronic G            0.000 [kcal/mol]        0.000 [kJ/mol]       0.00000000 [Eh]
    Translational G        -9.501 [kcal/mol]      -39.751 [kJ/mol]      -0.01514035 [Eh]
    Rotational G           -2.793 [kcal/mol]      -11.684 [kJ/mol]      -0.00445015 [Eh]
    Vibrational G           1.572 [kcal/mol]        6.578 [kJ/mol]       0.00250550 [Eh]
  Correction G            -10.721 [kcal/mol]      -44.857 [kJ/mol]      -0.01708501 [Eh]
  Total G, Free enthalpy at  298.15 [K]                               -199.57248735 [Eh]

*** Psi4 exiting successfully. Buy a developer a beer!
