                               Psi4 1.3.2 release

  ==> Input File <==

--------------------------------------------------------------------------
memory 144 GB

molecule {
0 1
O 0.0000000000 0.0000000000 0.0000000000
C 0.0000000000 0.0000000000 1.2066000000
H 0.9369544103 0.0000000000 1.7870836544
H -0.9369544103 0.0000000000 1.7870836544
}

set dynamic_level 1
set basis cc-pV(Q+d)Z

optimize("wB97M-V")
frequencies("wB97M-V")
--------------------------------------------------------------------------

    Molecular point group: c2v
  Charge       = 0
  Multiplicity = 1
  Basis Set: CC-PV(Q+D)Z
    Blend: CC-PV(Q+D)Z
  Basis Set: (CC-PV(Q+D)Z AUX)
    Blend: CC-PVQZ-JKFIT
  @DF-RKS Final Energy:  -114.51267104242811
    Total Energy =                       -114.5126710424281100
    Molecular point group: c2v
  Basis Set: CC-PV(Q+D)Z
    Blend: CC-PV(Q+D)Z
  Basis Set: (CC-PV(Q+D)Z AUX)
    Blend: CC-PVQZ-JKFIT
  @DF-RKS Final Energy:  -114.51264032536839
    Total Energy =                       -114.5126403253683947
  Basis Set: CC-PV(Q+D)Z
    Blend: CC-PV(Q+D)Z
  Basis Set: (CC-PV(Q+D)Z AUX)
    Blend: CC-PVQZ-JKFIT
  @DF-RKS Final Energy:  -114.51269890208681
    Total Energy =                       -114.5126989020868251
  Basis Set: CC-PV(Q+D)Z
    Blend: CC-PV(Q+D)Z
  Basis Set: (CC-PV(Q+D)Z AUX)
    Blend: CC-PVQZ-JKFIT
  @DF-RKS Final Energy:  -114.51267651309473
    Total Energy =                       -114.5126765130947319
  @DF-RKS Final Energy:  -114.51266162599185
    Total Energy =                       -114.5126616259918535
  @DF-RKS Final Energy:  -114.51266644720313
    Total Energy =                       -114.5126664472031308
  @DF-RKS Final Energy:  -114.51266910126007
    Total Energy =                       -114.5126691012600730
  @DF-RKS Final Energy:  -114.51281444230941
    Total Energy =                       -114.5128144423093914
  @DF-RKS Final Energy:  -114.51280912799837
    Total Energy =                       -114.5128091279983522
  @DF-RKS Final Energy:  -114.51281673995189
    Total Energy =                       -114.5128167399518873
  @DF-RKS Final Energy:  -114.51281827801020
    Total Energy =                       -114.5128182780102151
  @DF-RKS Final Energy:  -114.51280664796883
    Total Energy =                       -114.5128066479688300
  @DF-RKS Final Energy:  -114.51280914192672
    Total Energy =                       -114.5128091419267236
  @DF-RKS Final Energy:  -114.51281321676093
    Total Energy =                       -114.5128132167609465
  @DF-RKS Final Energy:  -114.51282046969034
    Total Energy =                       -114.5128204696903396
  @DF-RKS Final Energy:  -114.51281901072947
    Total Energy =                       -114.5128190107294728
  @DF-RKS Final Energy:  -114.51281888525702
    Total Energy =                       -114.5128188852570190
  @DF-RKS Final Energy:  -114.51281978983481
    Total Energy =                       -114.5128197898348219
  @DF-RKS Final Energy:  -114.51281719189221
    Total Energy =                       -114.5128171918922106
  @DF-RKS Final Energy:  -114.51281712160583
    Total Energy =                       -114.5128171216058348
  **** Optimization is complete! (in 4 steps) ****
    Final optimized geometry and variables:
  @DF-RKS Final Energy:  -114.51281755599412
    Total Energy =                       -114.5128175559941184
  @DF-RKS Final Energy:  -114.51281744877275
    Total Energy =                       -114.5128174487727506
  @DF-RKS Final Energy:  -114.51282074315027
    Total Energy =                       -114.5128207431502716
  @DF-RKS Final Energy:  -114.51281922846493
    Total Energy =                       -114.5128192284649487
  @DF-RKS Final Energy:  -114.51281921477030
    Total Energy =                       -114.5128192147702890
  @DF-RKS Final Energy:  -114.51281885976704
    Total Energy =                       -114.5128188597670373
  @DF-RKS Final Energy:  -114.51281866846325
    Total Energy =                       -114.5128186684632539
  @DF-RKS Final Energy:  -114.51281755599410
    Total Energy =                       -114.5128175559941042
  @DF-RKS Final Energy:  -114.51281744877305
    Total Energy =                       -114.5128174487730348
  @DF-RKS Final Energy:  -114.51281745081465
    Total Energy =                       -114.5128174508146515
  @DF-RKS Final Energy:  -114.51281765416005
    Total Energy =                       -114.5128176541600453
  @DF-RKS Final Energy:  -114.51281615821051
    Total Energy =                       -114.5128161582105122
  @DF-RKS Final Energy:  -114.51281627708715
    Total Energy =                       -114.5128162770871540
  @DF-RKS Final Energy:  -114.51281788541073
    Total Energy =                       -114.5128178854107261
  @DF-RKS Final Energy:  -114.51281819830997
    Total Energy =                       -114.5128181983099722
  @DF-RKS Final Energy:  -114.51281998019860
    Total Energy =                       -114.5128199801986000
  Basis Set: CC-PV(Q+D)Z
    Blend: CC-PV(Q+D)Z
  Basis Set: (CC-PV(Q+D)Z AUX)
    Blend: CC-PVQZ-JKFIT
  @DF-RKS Final Energy:  -114.51281654713006
    Total Energy =                       -114.5128165471300719
  Basis Set: CC-PV(Q+D)Z
    Blend: CC-PV(Q+D)Z
  Basis Set: (CC-PV(Q+D)Z AUX)
    Blend: CC-PVQZ-JKFIT
  @DF-RKS Final Energy:  -114.51281581683959
    Total Energy =                       -114.5128158168395913
  Multiplicity = 1
  Basis Set: CC-PV(Q+D)Z
    Blend: CC-PV(Q+D)Z
  Basis Set: (CC-PV(Q+D)Z AUX)
    Blend: CC-PVQZ-JKFIT
  @DF-RKS Final Energy:  -114.51281581677050
    Total Energy =                       -114.5128158167704981
    Molecular point group: cs

    Geometry (in Angstrom), charge = 0, multiplicity = 1:

       Center              X                  Y                   Z               Mass
    ------------   -----------------  -----------------  -----------------  -----------------
         O            0.000000000000    -0.000096580196    -0.598049028908    15.994914619570
         C            0.000000000000     0.000393188311     0.598722727090    12.000000000000
         H            0.937248359965    -0.001574414027     1.181291570701     1.007825032230
         H           -0.937248359965    -0.001574414027     1.181291570701     1.007825032230

  Charge       = 0
  Multiplicity = 1
  Basis Set: CC-PV(Q+D)Z
    Blend: CC-PV(Q+D)Z
  Basis Set: (CC-PV(Q+D)Z AUX)
    Blend: CC-PVQZ-JKFIT

    Orbital Energies [Eh]
    ---------------------

    Doubly Occupied:

       1Ap   -19.350010     2Ap   -10.441180     3Ap    -1.196873
       4Ap    -0.754100     1App   -0.610963     5Ap    -0.566652
       6Ap    -0.512233     2App   -0.376321

  @DF-RKS Final Energy:  -114.51282005603140

   => Energetics <=

    Nuclear Repulsion Energy =             31.4708234756583067
    One-Electron Energy =                -217.8035589016731421
    Two-Electron Energy =                  82.2417541284088713
    DFT Exchange-Correlation Energy =     -10.4883348806253238
    Empirical Dispersion Energy =           0.0000000000000000
    VV10 Nonlocal Energy =                  0.0664961221998974
    Total Energy =                       -114.5128200560314014

  Dipole Moment: [D]
     X:     0.0000      Y:    -0.0008      Z:     2.3523     Total:     2.3523

  Vibration                       7                   8                   9
  Freq [cm^-1]                1205.2169           1269.9181           1531.7901
  Irrep                           B2                  B1                  A1
  Reduced mass [u]              1.3669              1.3443              1.0950
  Force const [mDyne/A]         1.1698              1.2773              1.5138

  Vibration                       10                  11                  12
  Freq [cm^-1]                1846.5139           2914.6141           2978.3249
  Irrep                           A1                  A1                  B1
  Reduced mass [u]              7.9528              1.0438              1.1201
  Force const [mDyne/A]        15.9762              5.2241              5.8542

  ==> Thermochemistry Components <==

  Entropy, S
    Electronic S            0.000 [cal/(mol K)]        0.000 [J/(mol K)]       0.00000000 [mEh/K] (multiplicity = 1)
    Translational S        36.130 [cal/(mol K)]      151.169 [J/(mol K)]       0.05757719 [mEh/K] (mol. weight = 30.0106 [u], P = 101325.00 [Pa])
    Rotational S           15.987 [cal/(mol K)]       66.891 [J/(mol K)]       0.02547757 [mEh/K] (symmetry no. = 2)
    Vibrational S           0.084 [cal/(mol K)]        0.353 [J/(mol K)]       0.00013450 [mEh/K]
  Total S                  52.202 [cal/(mol K)]      218.413 [J/(mol K)]       0.08318926 [mEh/K]
  Correction S              0.000 [cal/(mol K)]        0.000 [J/(mol K)]       0.00000000 [mEh/K]

  Constant volume heat capacity, Cv
    Electronic Cv           0.000 [cal/(mol K)]        0.000 [J/(mol K)]       0.00000000 [mEh/K]
    Translational Cv        2.981 [cal/(mol K)]       12.472 [J/(mol K)]       0.00475022 [mEh/K]
    Rotational Cv           2.981 [cal/(mol K)]       12.472 [J/(mol K)]       0.00475022 [mEh/K]
    Vibrational Cv          0.454 [cal/(mol K)]        1.898 [J/(mol K)]       0.00072309 [mEh/K]
  Total Cv                  6.415 [cal/(mol K)]       26.842 [J/(mol K)]       0.01022352 [mEh/K]
  Correction Cv             0.000 [cal/(mol K)]        0.000 [J/(mol K)]       0.00000000 [mEh/K]

  Constant pressure heat capacity, Cp
    Electronic Cp           0.000 [cal/(mol K)]        0.000 [J/(mol K)]       0.00000000 [mEh/K]
    Translational Cp        4.968 [cal/(mol K)]       20.786 [J/(mol K)]       0.00791703 [mEh/K]
    Rotational Cp           2.981 [cal/(mol K)]       12.472 [J/(mol K)]       0.00475022 [mEh/K]
    Vibrational Cp          0.454 [cal/(mol K)]        1.898 [J/(mol K)]       0.00072309 [mEh/K]
  Total Cp                  8.403 [cal/(mol K)]       35.156 [J/(mol K)]       0.01339033 [mEh/K]
  Correction Cp             0.000 [cal/(mol K)]        0.000 [J/(mol K)]       0.00000000 [mEh/K]

  ==> Thermochemistry Energy Analysis <==

  Raw electronic energy, E0
  Total E0, Electronic energy at well bottom at 0 [K]                 -114.51282074 [Eh]

  Zero-point energy, ZPE_vib = Sum_i nu_i / 2
    Electronic ZPE          0.000 [kcal/mol]        0.000 [kJ/mol]       0.00000000 [Eh]
    Translational ZPE       0.000 [kcal/mol]        0.000 [kJ/mol]       0.00000000 [Eh]
    Rotational ZPE          0.000 [kcal/mol]        0.000 [kJ/mol]       0.00000000 [Eh]
    Vibrational ZPE        16.792 [kcal/mol]       70.259 [kJ/mol]       0.02676022 [Eh]        5873.189 [cm^-1]
  Correction ZPE           16.792 [kcal/mol]       70.259 [kJ/mol]       0.02676022 [Eh]        5873.189 [cm^-1]
  Total ZPE, Electronic energy at 0 [K]                               -114.48606053 [Eh]

  Thermal Energy, E (includes ZPE)
    Electronic E            0.000 [kcal/mol]        0.000 [kJ/mol]       0.00000000 [Eh]
    Translational E         0.889 [kcal/mol]        3.718 [kJ/mol]       0.00141628 [Eh]
    Rotational E            0.889 [kcal/mol]        3.718 [kJ/mol]       0.00141628 [Eh]
    Vibrational E          16.814 [kcal/mol]       70.350 [kJ/mol]       0.02679473 [Eh]
  Correction E             18.591 [kcal/mol]       77.786 [kJ/mol]       0.02962728 [Eh]
  Total E, Electronic energy at  298.15 [K]                           -114.48319346 [Eh]

  Enthalpy, H_trans = E_trans + k_B * T
    Electronic H            0.000 [kcal/mol]        0.000 [kJ/mol]       0.00000000 [Eh]
    Translational H         1.481 [kcal/mol]        6.197 [kJ/mol]       0.00236046 [Eh]
    Rotational H            0.889 [kcal/mol]        3.718 [kJ/mol]       0.00141628 [Eh]
    Vibrational H          16.814 [kcal/mol]       70.350 [kJ/mol]       0.02679473 [Eh]
  Correction H             19.184 [kcal/mol]       80.265 [kJ/mol]       0.03057147 [Eh]
  Total H, Enthalpy at  298.15 [K]                                    -114.48224928 [Eh]

  Gibbs free energy, G = H - T * S
    Electronic G            0.000 [kcal/mol]        0.000 [kJ/mol]       0.00000000 [Eh]
    Translational G        -9.291 [kcal/mol]      -38.874 [kJ/mol]      -0.01480618 [Eh]
    Rotational G           -3.878 [kcal/mol]      -16.225 [kJ/mol]      -0.00617986 [Eh]
    Vibrational G          16.789 [kcal/mol]       70.244 [kJ/mol]       0.02675463 [Eh]
  Correction G              3.620 [kcal/mol]       15.145 [kJ/mol]       0.00576859 [Eh]
  Total G, Free enthalpy at  298.15 [K]                               -114.50705215 [Eh]

*** Psi4 exiting successfully. Buy a developer a beer!
