                               Psi4 1.3.2 release

  ==> Input File <==

--------------------------------------------------------------------------
memory 144 GB

molecule {
0 1
S 0.0000000000 0.0000000000 0.0000000000
C 0.0000000000 0.0000000000 1.2066000000
H 0.9369544103 0.0000000000 1.7870836544
H -0.9369544103 0.0000000000 1.7870836544
}

set dynamic_level 1
set basis cc-pV(Q+d)Z

optimize("wB97M-V")
frequencies("wB97M-V")
--------------------------------------------------------------------------

    Molecular point group: c2v
  Charge       = 0
  Multiplicity = 1
  Basis Set: CC-PV(Q+D)Z
    Blend: CC-PV(Q+D)Z
  Basis Set: (CC-PV(Q+D)Z AUX)
    Blend: CC-PVQZ-JKFIT
  @DF-RKS Final Energy:  -437.18805477015582
    Total Energy =                       -437.1880547701558157
    Molecular point group: c2v
  Basis Set: CC-PV(Q+D)Z
    Blend: CC-PV(Q+D)Z
  Basis Set: (CC-PV(Q+D)Z AUX)
    Blend: CC-PVQZ-JKFIT
  @DF-RKS Final Energy:  -437.18970515793069
    Total Energy =                       -437.1897051579306890
  Basis Set: CC-PV(Q+D)Z
    Blend: CC-PV(Q+D)Z
  Basis Set: (CC-PV(Q+D)Z AUX)
    Blend: CC-PVQZ-JKFIT
  @DF-RKS Final Energy:  -437.18639658223236
    Total Energy =                       -437.1863965822323053
  Basis Set: CC-PV(Q+D)Z
    Blend: CC-PV(Q+D)Z
  Basis Set: (CC-PV(Q+D)Z AUX)
    Blend: CC-PVQZ-JKFIT
  @DF-RKS Final Energy:  -437.18765078233446
    Total Energy =                       -437.1876507823344582
  @DF-RKS Final Energy:  -437.18845407279599
    Total Energy =                       -437.1884540727959916
  @DF-RKS Final Energy:  -437.18810393989020
    Total Energy =                       -437.1881039398901976
  @DF-RKS Final Energy:  -437.18799962642078
    Total Energy =                       -437.1879996264207762
  @DF-RKS Final Energy:  -437.36647695730443
    Total Energy =                       -437.3664769573044282
  @DF-RKS Final Energy:  -437.36722462816681
    Total Energy =                       -437.3672246281668095
  @DF-RKS Final Energy:  -437.36572500380368
    Total Energy =                       -437.3657250038037319
  @DF-RKS Final Energy:  -437.36624645587324
    Total Energy =                       -437.3662464558732381
  @DF-RKS Final Energy:  -437.36670308725712
    Total Energy =                       -437.3667030872571218
  @DF-RKS Final Energy:  -437.36652221578362
    Total Energy =                       -437.3665222157836183
  @DF-RKS Final Energy:  -437.36642564725503
    Total Energy =                       -437.3664256472550278
  @DF-RKS Final Energy:  -437.43103316077872
    Total Energy =                       -437.4310331607787816
  @DF-RKS Final Energy:  -437.43136724573480
    Total Energy =                       -437.4313672457348048
  @DF-RKS Final Energy:  -437.43069645514487
    Total Energy =                       -437.4306964551448687
  @DF-RKS Final Energy:  -437.43091264257436
    Total Energy =                       -437.4309126425744125
  @DF-RKS Final Energy:  -437.43114935659668
    Total Energy =                       -437.4311493565966771
  @DF-RKS Final Energy:  -437.43104173104712
    Total Energy =                       -437.4310417310471166
  **** Optimization is complete! (in 9 steps) ****
    Final optimized geometry and variables:
  @DF-RKS Final Energy:  -437.45820437429751
    Total Energy =                       -437.4582043742975088
  @DF-RKS Final Energy:  -437.45820435749062
    Total Energy =                       -437.4582043574905583
  @DF-RKS Final Energy:  -437.45820790046230
    Total Energy =                       -437.4582079004622983
  @DF-RKS Final Energy:  -437.45820731964426
    Total Energy =                       -437.4582073196442593
  @DF-RKS Final Energy:  -437.45820726172337
    Total Energy =                       -437.4582072617233166
  @DF-RKS Final Energy:  -437.45820590422221
    Total Energy =                       -437.4582059042222681
  @DF-RKS Final Energy:  -437.45820583462142
    Total Energy =                       -437.4582058346214808
  @DF-RKS Final Energy:  -437.45820437429785
    Total Energy =                       -437.4582043742978499
  @DF-RKS Final Energy:  -437.45820435749101
    Total Energy =                       -437.4582043574911268
  @DF-RKS Final Energy:  -437.45820535197583
    Total Energy =                       -437.4582053519757778
  @DF-RKS Final Energy:  -437.45820547865424
    Total Energy =                       -437.4582054786542358
  @DF-RKS Final Energy:  -437.45820370153763
    Total Energy =                       -437.4582037015376272
  @DF-RKS Final Energy:  -437.45820377548847
    Total Energy =                       -437.4582037754884141
  @DF-RKS Final Energy:  -437.45820539833193
    Total Energy =                       -437.4582053983319270
  @DF-RKS Final Energy:  -437.45820550200972
    Total Energy =                       -437.4582055020097187
  @DF-RKS Final Energy:  -437.45820742026507
    Total Energy =                       -437.4582074202650119
  Basis Set: CC-PV(Q+D)Z
    Blend: CC-PV(Q+D)Z
  Basis Set: (CC-PV(Q+D)Z AUX)
    Blend: CC-PVQZ-JKFIT
  @DF-RKS Final Energy:  -437.45820313746151
    Total Energy =                       -437.4582031374615099
  Basis Set: CC-PV(Q+D)Z
    Blend: CC-PV(Q+D)Z
  Basis Set: (CC-PV(Q+D)Z AUX)
    Blend: CC-PVQZ-JKFIT
  @DF-RKS Final Energy:  -437.45820268982453
    Total Energy =                       -437.4582026898245317
  Multiplicity = 1
  Basis Set: CC-PV(Q+D)Z
    Blend: CC-PV(Q+D)Z
  Basis Set: (CC-PV(Q+D)Z AUX)
    Blend: CC-PVQZ-JKFIT
  @DF-RKS Final Energy:  -437.45820268946613
    Total Energy =                       -437.4582026894661340
    Molecular point group: cs

    Geometry (in Angstrom), charge = 0, multiplicity = 1:

       Center              X                  Y                   Z               Mass
    ------------   -----------------  -----------------  -----------------  -----------------
         S            0.000000000000    -0.000036913457    -0.511907447689    31.972071174400
         C            0.000000000000     0.000370888699     1.084878114067    12.000000000000
         H            0.920252390608    -0.001622535965     1.661103800926     1.007825032230
         H           -0.920252390608    -0.001622535965     1.661103800926     1.007825032230

  Charge       = 0
  Multiplicity = 1
  Basis Set: CC-PV(Q+D)Z
    Blend: CC-PV(Q+D)Z
  Basis Set: (CC-PV(Q+D)Z AUX)
    Blend: CC-PVQZ-JKFIT

    Orbital Energies [Eh]
    ---------------------

    Doubly Occupied:

       1Ap   -89.205056     2Ap   -10.412928     3Ap    -8.120271
       4Ap    -6.030881     5Ap    -6.028431     1App   -6.021662
       6Ap    -0.924749     7Ap    -0.716310     2App   -0.573230
       8Ap    -0.497898     9Ap    -0.418744     3App   -0.327950

  @DF-RKS Final Energy:  -437.45820738625127

   => Energetics <=

    Nuclear Repulsion Energy =             45.1263167274434949
    One-Electron Energy =                -691.6110223742000471
    Two-Electron Energy =                 232.9403405491524666
    DFT Exchange-Correlation Energy =     -24.0130664397196512
    Empirical Dispersion Energy =           0.0000000000000000
    VV10 Nonlocal Energy =                  0.0992241510724595
    Total Energy =                       -437.4582073862512743

  Dipole Moment: [D]
     X:     0.0000      Y:    -0.0026      Z:     1.7037     Total:     1.7037

  Vibration                       7                   8                   9
  Freq [cm^-1]                1007.4684           1042.6054           1127.0469
  Irrep                           B1                  B2                  A1
  Reduced mass [u]              1.2077              1.2954              4.2564
  Force const [mDyne/A]         0.7222              0.8297              3.1855

  Vibration                       10                  11                  12
  Freq [cm^-1]                1498.0012           3088.7427           3173.1630
  Irrep                           A1                  A1                  B1
  Reduced mass [u]              1.2113              1.0509              1.1192
  Force const [mDyne/A]         1.6015              5.9069              6.6397

  ==> Thermochemistry Components <==

  Entropy, S
    Electronic S            0.000 [cal/(mol K)]        0.000 [J/(mol K)]       0.00000000 [mEh/K] (multiplicity = 1)
    Translational S        37.403 [cal/(mol K)]      156.492 [J/(mol K)]       0.05960470 [mEh/K] (mol. weight = 45.9877 [u], P = 101325.00 [Pa])
    Rotational S           17.436 [cal/(mol K)]       72.952 [J/(mol K)]       0.02778583 [mEh/K] (symmetry no. = 2)
    Vibrational S           0.237 [cal/(mol K)]        0.992 [J/(mol K)]       0.00037802 [mEh/K]
  Total S                  55.076 [cal/(mol K)]      230.436 [J/(mol K)]       0.08776855 [mEh/K]
  Correction S              0.000 [cal/(mol K)]        0.000 [J/(mol K)]       0.00000000 [mEh/K]

  Constant volume heat capacity, Cv
    Electronic Cv           0.000 [cal/(mol K)]        0.000 [J/(mol K)]       0.00000000 [mEh/K]
    Translational Cv        2.981 [cal/(mol K)]       12.472 [J/(mol K)]       0.00475022 [mEh/K]
    Rotational Cv           2.981 [cal/(mol K)]       12.472 [J/(mol K)]       0.00475022 [mEh/K]
    Vibrational Cv          1.035 [cal/(mol K)]        4.332 [J/(mol K)]       0.00164979 [mEh/K]
  Total Cv                  6.997 [cal/(mol K)]       29.275 [J/(mol K)]       0.01115022 [mEh/K]
  Correction Cv             0.000 [cal/(mol K)]        0.000 [J/(mol K)]       0.00000000 [mEh/K]

  Constant pressure heat capacity, Cp
    Electronic Cp           0.000 [cal/(mol K)]        0.000 [J/(mol K)]       0.00000000 [mEh/K]
    Translational Cp        4.968 [cal/(mol K)]       20.786 [J/(mol K)]       0.00791703 [mEh/K]
    Rotational Cp           2.981 [cal/(mol K)]       12.472 [J/(mol K)]       0.00475022 [mEh/K]
    Vibrational Cp          1.035 [cal/(mol K)]        4.332 [J/(mol K)]       0.00164979 [mEh/K]
  Total Cp                  8.984 [cal/(mol K)]       37.589 [J/(mol K)]       0.01431703 [mEh/K]
  Correction Cp             0.000 [cal/(mol K)]        0.000 [J/(mol K)]       0.00000000 [mEh/K]

  ==> Thermochemistry Energy Analysis <==

  Raw electronic energy, E0
  Total E0, Electronic energy at well bottom at 0 [K]                 -437.45820790 [Eh]

  Zero-point energy, ZPE_vib = Sum_i nu_i / 2
    Electronic ZPE          0.000 [kcal/mol]        0.000 [kJ/mol]       0.00000000 [Eh]
    Translational ZPE       0.000 [kcal/mol]        0.000 [kJ/mol]       0.00000000 [Eh]
    Rotational ZPE          0.000 [kcal/mol]        0.000 [kJ/mol]       0.00000000 [Eh]
    Vibrational ZPE        15.635 [kcal/mol]       65.418 [kJ/mol]       0.02491638 [Eh]        5468.514 [cm^-1]
  Correction ZPE           15.635 [kcal/mol]       65.418 [kJ/mol]       0.02491638 [Eh]        5468.514 [cm^-1]
  Total ZPE, Electronic energy at 0 [K]                               -437.43329152 [Eh]

  Thermal Energy, E (includes ZPE)
    Electronic E            0.000 [kcal/mol]        0.000 [kJ/mol]       0.00000000 [Eh]
    Translational E         0.889 [kcal/mol]        3.718 [kJ/mol]       0.00141628 [Eh]
    Rotational E            0.889 [kcal/mol]        3.718 [kJ/mol]       0.00141628 [Eh]
    Vibrational E          15.694 [kcal/mol]       65.666 [kJ/mol]       0.02501077 [Eh]
  Correction E             17.472 [kcal/mol]       73.103 [kJ/mol]       0.02784333 [Eh]
  Total E, Electronic energy at  298.15 [K]                           -437.43036457 [Eh]

  Enthalpy, H_trans = E_trans + k_B * T
    Electronic H            0.000 [kcal/mol]        0.000 [kJ/mol]       0.00000000 [Eh]
    Translational H         1.481 [kcal/mol]        6.197 [kJ/mol]       0.00236046 [Eh]
    Rotational H            0.889 [kcal/mol]        3.718 [kJ/mol]       0.00141628 [Eh]
    Vibrational H          15.694 [kcal/mol]       65.666 [kJ/mol]       0.02501077 [Eh]
  Correction H             18.064 [kcal/mol]       75.582 [kJ/mol]       0.02878751 [Eh]
  Total H, Enthalpy at  298.15 [K]                                    -437.42942039 [Eh]

  Gibbs free energy, G = H - T * S
    Electronic G            0.000 [kcal/mol]        0.000 [kJ/mol]       0.00000000 [Eh]
    Translational G        -9.670 [kcal/mol]      -40.461 [kJ/mol]      -0.01541068 [Eh]
    Rotational G           -4.310 [kcal/mol]      -18.032 [kJ/mol]      -0.00686807 [Eh]
    Vibrational G          15.624 [kcal/mol]       65.370 [kJ/mol]       0.02489807 [Eh]
  Correction G              1.644 [kcal/mol]        6.877 [kJ/mol]       0.00261932 [Eh]
  Total G, Free enthalpy at  298.15 [K]                               -437.45558858 [Eh]

*** Psi4 exiting successfully. Buy a developer a beer!
