                               Psi4 1.3.2 release

  ==> Input File <==

--------------------------------------------------------------------------
memory 144 GB

molecule {
0 1
O 0.0000000000 0.0000000000 0.0000000000
H 0.0000000000 0.0000000000 0.9579000000
H 0.9289588892 0.0000000000 -0.2336831018
}

set dynamic_level 1
set basis cc-pV(Q+d)Z

optimize("wB97M-V")
frequencies("wB97M-V")
--------------------------------------------------------------------------

    Molecular point group: c2v
  Charge       = 0
  Multiplicity = 1
  Basis Set: CC-PV(Q+D)Z
    Blend: CC-PV(Q+D)Z
  Basis Set: (CC-PV(Q+D)Z AUX)
    Blend: CC-PVQZ-JKFIT
  @DF-RKS Final Energy:   -76.43613864400936
    Total Energy =                        -76.4361386440093753
    Molecular point group: c2v
  Basis Set: CC-PV(Q+D)Z
    Blend: CC-PV(Q+D)Z
  Basis Set: (CC-PV(Q+D)Z AUX)
    Blend: CC-PVQZ-JKFIT
  @DF-RKS Final Energy:   -76.43613489948767
    Total Energy =                        -76.4361348994876693
  Basis Set: CC-PV(Q+D)Z
    Blend: CC-PV(Q+D)Z
  Basis Set: (CC-PV(Q+D)Z AUX)
    Blend: CC-PVQZ-JKFIT
  @DF-RKS Final Energy:   -76.43613589940571
    Total Energy =                        -76.4361358994057127
  Basis Set: CC-PV(Q+D)Z
    Blend: CC-PV(Q+D)Z
  Basis Set: (CC-PV(Q+D)Z AUX)
    Blend: CC-PVQZ-JKFIT
  @DF-RKS Final Energy:   -76.43612387910183
    Total Energy =                        -76.4361238791018280
  @DF-RKS Final Energy:   -76.43614328702998
    Total Energy =                        -76.4361432870299922
  @DF-RKS Final Energy:   -76.43614776667216
    Total Energy =                        -76.4361477666721498
  @DF-RKS Final Energy:   -76.43614365760287
    Total Energy =                        -76.4361436576028836
  @DF-RKS Final Energy:   -76.43614547016170
    Total Energy =                        -76.4361454701617191
  @DF-RKS Final Energy:   -76.43614453358444
    Total Energy =                        -76.4361445335844394
  @DF-RKS Final Energy:   -76.43614092037242
    Total Energy =                        -76.4361409203724236
  **** Optimization is complete! (in 2 steps) ****
    Final optimized geometry and variables:
  @DF-RKS Final Energy:   -76.43614776667172
    Total Energy =                        -76.4361477666717235
  @DF-RKS Final Energy:   -76.43614365760246
    Total Energy =                        -76.4361436576024573
  @DF-RKS Final Energy:   -76.43614547016135
    Total Energy =                        -76.4361454701613496
  @DF-RKS Final Energy:   -76.43614453358472
    Total Energy =                        -76.4361445335847094
  @DF-RKS Final Energy:   -76.43614092037267
    Total Energy =                        -76.4361409203726794
  @DF-RKS Final Energy:   -76.43614776667215
    Total Energy =                        -76.4361477666721498
  @DF-RKS Final Energy:   -76.43614365760300
    Total Energy =                        -76.4361436576029973
  @DF-RKS Final Energy:   -76.43614547016169
    Total Energy =                        -76.4361454701616907
  @DF-RKS Final Energy:   -76.43614453358512
    Total Energy =                        -76.4361445335851215
  Basis Set: CC-PV(Q+D)Z
    Blend: CC-PV(Q+D)Z
  Basis Set: (CC-PV(Q+D)Z AUX)
    Blend: CC-PVQZ-JKFIT
  @DF-RKS Final Energy:   -76.43614092037332
    Total Energy =                        -76.4361409203733189
  Basis Set: CC-PV(Q+D)Z
    Blend: CC-PV(Q+D)Z
  Basis Set: (CC-PV(Q+D)Z AUX)
    Blend: CC-PVQZ-JKFIT
  @DF-RKS Final Energy:   -76.43614401722249
    Total Energy =                        -76.4361440172225031
  Multiplicity = 1
  Basis Set: CC-PV(Q+D)Z
    Blend: CC-PV(Q+D)Z
  Basis Set: (CC-PV(Q+D)Z AUX)
    Blend: CC-PVQZ-JKFIT
  @DF-RKS Final Energy:   -76.43614583815501
    Total Energy =                        -76.4361458381550136
    Molecular point group: cs

    Geometry (in Angstrom), charge = 0, multiplicity = 1:

       Center              X                  Y                   Z               Mass
    ------------   -----------------  -----------------  -----------------  -----------------
         O            0.000000000000    -0.000179013986    -0.065548886153    15.994914619570
         H            0.000000000000     0.760643978750     0.521250071972     1.007825032230
         H            0.000000000000    -0.757802896884     0.519058318766     1.007825032230

  Charge       = 0
  Multiplicity = 1
  Basis Set: CC-PV(Q+D)Z
    Blend: CC-PV(Q+D)Z
  Basis Set: (CC-PV(Q+D)Z AUX)
    Blend: CC-PVQZ-JKFIT

    Orbital Energies [Eh]
    ---------------------

    Doubly Occupied:

       1Ap   -19.327184     2Ap    -1.137398     3Ap    -0.636565
       4Ap    -0.497064     1App   -0.421602

  @DF-RKS Final Energy:   -76.43614042462701

   => Energetics <=

    Nuclear Repulsion Energy =              9.1783724133295941
    One-Electron Energy =                -123.0405151847845389
    Two-Electron Energy =                  44.0475138464641347
    DFT Exchange-Correlation Energy =      -6.6640891884179991
    Empirical Dispersion Energy =           0.0000000000000000
    VV10 Nonlocal Energy =                  0.0425776887817957
    Total Energy =                        -76.4361404246270268

  Dipole Moment: [D]
     X:     0.0000      Y:     0.0030      Z:     1.8956     Total:     1.8956

  Vibration                       7                   8                   9
  Freq [cm^-1]                1636.9987           3839.8679           3939.6514
  Irrep                           A1                  A1                  B2
  Reduced mass [u]              1.0829              1.0450              1.0821
  Force const [mDyne/A]         1.7097              9.0780              9.8950

  ==> Thermochemistry Components <==

  Entropy, S
    Electronic S            0.000 [cal/(mol K)]        0.000 [J/(mol K)]       0.00000000 [mEh/K] (multiplicity = 1)
    Translational S        34.608 [cal/(mol K)]      144.801 [J/(mol K)]       0.05515177 [mEh/K] (mol. weight = 18.0106 [u], P = 101325.00 [Pa])
    Rotational S           10.455 [cal/(mol K)]       43.743 [J/(mol K)]       0.01666084 [mEh/K] (symmetry no. = 2)
    Vibrational S           0.007 [cal/(mol K)]        0.027 [J/(mol K)]       0.00001046 [mEh/K]
  Total S                  45.070 [cal/(mol K)]      188.571 [J/(mol K)]       0.07182307 [mEh/K]
  Correction S              0.000 [cal/(mol K)]        0.000 [J/(mol K)]       0.00000000 [mEh/K]

  Constant volume heat capacity, Cv
    Electronic Cv           0.000 [cal/(mol K)]        0.000 [J/(mol K)]       0.00000000 [mEh/K]
    Translational Cv        2.981 [cal/(mol K)]       12.472 [J/(mol K)]       0.00475022 [mEh/K]
    Rotational Cv           2.981 [cal/(mol K)]       12.472 [J/(mol K)]       0.00475022 [mEh/K]
    Vibrational Cv          0.046 [cal/(mol K)]        0.193 [J/(mol K)]       0.00007336 [mEh/K]
  Total Cv                  6.008 [cal/(mol K)]       25.136 [J/(mol K)]       0.00957380 [mEh/K]
  Correction Cv             0.000 [cal/(mol K)]        0.000 [J/(mol K)]       0.00000000 [mEh/K]

  Constant pressure heat capacity, Cp
    Electronic Cp           0.000 [cal/(mol K)]        0.000 [J/(mol K)]       0.00000000 [mEh/K]
    Translational Cp        4.968 [cal/(mol K)]       20.786 [J/(mol K)]       0.00791703 [mEh/K]
    Rotational Cp           2.981 [cal/(mol K)]       12.472 [J/(mol K)]       0.00475022 [mEh/K]
    Vibrational Cp          0.046 [cal/(mol K)]        0.193 [J/(mol K)]       0.00007336 [mEh/K]
  Total Cp                  7.995 [cal/(mol K)]       33.450 [J/(mol K)]       0.01274061 [mEh/K]
  Correction Cp             0.000 [cal/(mol K)]        0.000 [J/(mol K)]       0.00000000 [mEh/K]

  ==> Thermochemistry Energy Analysis <==

  Raw electronic energy, E0
  Total E0, Electronic energy at well bottom at 0 [K]                  -76.43614777 [Eh]

  Zero-point energy, ZPE_vib = Sum_i nu_i / 2
    Electronic ZPE          0.000 [kcal/mol]        0.000 [kJ/mol]       0.00000000 [Eh]
    Translational ZPE       0.000 [kcal/mol]        0.000 [kJ/mol]       0.00000000 [Eh]
    Rotational ZPE          0.000 [kcal/mol]        0.000 [kJ/mol]       0.00000000 [Eh]
    Vibrational ZPE        13.462 [kcal/mol]       56.323 [kJ/mol]       0.02145241 [Eh]        4708.259 [cm^-1]
  Correction ZPE           13.462 [kcal/mol]       56.323 [kJ/mol]       0.02145241 [Eh]        4708.259 [cm^-1]
  Total ZPE, Electronic energy at 0 [K]                                -76.41469536 [Eh]

  Thermal Energy, E (includes ZPE)
    Electronic E            0.000 [kcal/mol]        0.000 [kJ/mol]       0.00000000 [Eh]
    Translational E         0.889 [kcal/mol]        3.718 [kJ/mol]       0.00141628 [Eh]
    Rotational E            0.889 [kcal/mol]        3.718 [kJ/mol]       0.00141628 [Eh]
    Vibrational E          13.463 [kcal/mol]       56.331 [kJ/mol]       0.02145517 [Eh]
  Correction E             15.241 [kcal/mol]       63.767 [kJ/mol]       0.02428773 [Eh]
  Total E, Electronic energy at  298.15 [K]                            -76.41186004 [Eh]

  Enthalpy, H_trans = E_trans + k_B * T
    Electronic H            0.000 [kcal/mol]        0.000 [kJ/mol]       0.00000000 [Eh]
    Translational H         1.481 [kcal/mol]        6.197 [kJ/mol]       0.00236046 [Eh]
    Rotational H            0.889 [kcal/mol]        3.718 [kJ/mol]       0.00141628 [Eh]
    Vibrational H          13.463 [kcal/mol]       56.331 [kJ/mol]       0.02145517 [Eh]
  Correction H             15.833 [kcal/mol]       66.246 [kJ/mol]       0.02523191 [Eh]
  Total H, Enthalpy at  298.15 [K]                                     -76.41091585 [Eh]

  Gibbs free energy, G = H - T * S
    Electronic G            0.000 [kcal/mol]        0.000 [kJ/mol]       0.00000000 [Eh]
    Translational G        -8.837 [kcal/mol]      -36.975 [kJ/mol]      -0.01408304 [Eh]
    Rotational G           -2.228 [kcal/mol]       -9.324 [kJ/mol]      -0.00355115 [Eh]
    Vibrational G          13.461 [kcal/mol]       56.322 [kJ/mol]       0.02145206 [Eh]
  Correction G              2.396 [kcal/mol]       10.024 [kJ/mol]       0.00381786 [Eh]
  Total G, Free enthalpy at  298.15 [K]                                -76.43232990 [Eh]

*** Psi4 exiting successfully. Buy a developer a beer!
