                               Psi4 1.3.2 release

  ==> Input File <==

--------------------------------------------------------------------------
memory 144 GB

molecule {
0 1
S 0.0000000000 0.0000000000 0.0000000000
H 0.0000000000 0.0000000000 1.3377284100
H 1.3366219004 0.0000000000 -0.0543984776
}

set dynamic_level 1
set basis cc-pV(Q+d)Z

optimize("wB97M-V")
frequencies("wB97M-V")
--------------------------------------------------------------------------

    Molecular point group: c2v
  Charge       = 0
  Multiplicity = 1
  Basis Set: CC-PV(Q+D)Z
    Blend: CC-PV(Q+D)Z
  Basis Set: (CC-PV(Q+D)Z AUX)
    Blend: CC-PVQZ-JKFIT
  @DF-RKS Final Energy:  -399.38486524979061
    Total Energy =                       -399.3848652497905505
    Molecular point group: c2v
  Basis Set: CC-PV(Q+D)Z
    Blend: CC-PV(Q+D)Z
  Basis Set: (CC-PV(Q+D)Z AUX)
    Blend: CC-PVQZ-JKFIT
  @DF-RKS Final Energy:  -399.38486167918887
    Total Energy =                       -399.3848616791888730
  Basis Set: CC-PV(Q+D)Z
    Blend: CC-PV(Q+D)Z
  Basis Set: (CC-PV(Q+D)Z AUX)
    Blend: CC-PVQZ-JKFIT
  @DF-RKS Final Energy:  -399.38486477198921
    Total Energy =                       -399.3848647719892142
  Basis Set: CC-PV(Q+D)Z
    Blend: CC-PV(Q+D)Z
  Basis Set: (CC-PV(Q+D)Z AUX)
    Blend: CC-PVQZ-JKFIT
  @DF-RKS Final Energy:  -399.38486513415114
    Total Energy =                       -399.3848651341511413
  @DF-RKS Final Energy:  -399.38486099368123
    Total Energy =                       -399.3848609936812295
  @DF-RKS Final Energy:  -399.38486574721611
    Total Energy =                       -399.3848657472160539
  @DF-RKS Final Energy:  -399.38486374871633
    Total Energy =                       -399.3848637487163273
  @DF-RKS Final Energy:  -399.38486368459820
    Total Energy =                       -399.3848636845981446
  @DF-RKS Final Energy:  -399.38486338570988
    Total Energy =                       -399.3848633857098775
  @DF-RKS Final Energy:  -399.38486372371460
    Total Energy =                       -399.3848637237146590
  **** Optimization is complete! (in 2 steps) ****
    Final optimized geometry and variables:
  @DF-RKS Final Energy:  -399.38486574721560
    Total Energy =                       -399.3848657472156560
  @DF-RKS Final Energy:  -399.38486374871673
    Total Energy =                       -399.3848637487167252
  @DF-RKS Final Energy:  -399.38486368459792
    Total Energy =                       -399.3848636845979172
  @DF-RKS Final Energy:  -399.38486338570988
    Total Energy =                       -399.3848633857099344
  @DF-RKS Final Energy:  -399.38486372371455
    Total Energy =                       -399.3848637237146022
  @DF-RKS Final Energy:  -399.38486574721617
    Total Energy =                       -399.3848657472161676
  @DF-RKS Final Energy:  -399.38486374871661
    Total Energy =                       -399.3848637487164979
  @DF-RKS Final Energy:  -399.38486368459843
    Total Energy =                       -399.3848636845984288
  @DF-RKS Final Energy:  -399.38486338570971
    Total Energy =                       -399.3848633857096502
  Basis Set: CC-PV(Q+D)Z
    Blend: CC-PV(Q+D)Z
  Basis Set: (CC-PV(Q+D)Z AUX)
    Blend: CC-PVQZ-JKFIT
  @DF-RKS Final Energy:  -399.38486372371517
    Total Energy =                       -399.3848637237151138
  Basis Set: CC-PV(Q+D)Z
    Blend: CC-PV(Q+D)Z
  Basis Set: (CC-PV(Q+D)Z AUX)
    Blend: CC-PVQZ-JKFIT
  @DF-RKS Final Energy:  -399.38486449356304
    Total Energy =                       -399.3848644935630432
  Multiplicity = 1
  Basis Set: CC-PV(Q+D)Z
    Blend: CC-PV(Q+D)Z
  Basis Set: (CC-PV(Q+D)Z AUX)
    Blend: CC-PVQZ-JKFIT
  @DF-RKS Final Energy:  -399.38486422108241
    Total Energy =                       -399.3848642210824664
    Molecular point group: cs

    Geometry (in Angstrom), charge = 0, multiplicity = 1:

       Center              X                  Y                   Z               Mass
    ------------   -----------------  -----------------  -----------------  -----------------
         S            0.000000000000    -0.000083364285    -0.054938586900    31.972071174400
         H            0.000000000000     0.965398934396     0.872701826848     1.007825032230
         H            0.000000000000    -0.962754299894     0.870160628845     1.007825032230

  Charge       = 0
  Multiplicity = 1
  Basis Set: CC-PV(Q+D)Z
    Blend: CC-PV(Q+D)Z
  Basis Set: (CC-PV(Q+D)Z AUX)
    Blend: CC-PVQZ-JKFIT

    Orbital Energies [Eh]
    ---------------------

    Doubly Occupied:

       1Ap   -89.209049     2Ap    -8.124973     3Ap    -6.035282
       4Ap    -6.032526     1App   -6.027248     5Ap    -0.861985
       6Ap    -0.542360     7Ap    -0.465689     2App   -0.359957

  @DF-RKS Final Energy:  -399.38486222780324

   => Energetics <=

    Nuclear Repulsion Energy =             12.9397693279340569
    One-Electron Energy =                -576.7469532717502716
    Two-Electron Energy =                 184.5059923686339403
    DFT Exchange-Correlation Energy =     -20.1594053521924366
    Empirical Dispersion Energy =           0.0000000000000000
    VV10 Nonlocal Energy =                  0.0757346995714710
    Total Energy =                       -399.3848622278032394

  Dipole Moment: [D]
     X:     0.0000      Y:    -0.0000      Z:     1.0107     Total:     1.0107

  Vibration                       7                   8                   9
  Freq [cm^-1]                1210.0444           2727.6232           2731.8884
  Irrep                           A1                  B2                  A1
  Reduced mass [u]              1.0394              1.0398              1.0359
  Force const [mDyne/A]         0.8967              4.5579              4.5550

  ==> Thermochemistry Components <==

  Entropy, S
    Electronic S            0.000 [cal/(mol K)]        0.000 [J/(mol K)]       0.00000000 [mEh/K] (multiplicity = 1)
    Translational S        36.501 [cal/(mol K)]      152.721 [J/(mol K)]       0.05816835 [mEh/K] (mol. weight = 33.9877 [u], P = 101325.00 [Pa])
    Rotational S           12.572 [cal/(mol K)]       52.601 [J/(mol K)]       0.02003480 [mEh/K] (symmetry no. = 2)
    Vibrational S           0.040 [cal/(mol K)]        0.166 [J/(mol K)]       0.00006339 [mEh/K]
  Total S                  49.113 [cal/(mol K)]      205.489 [J/(mol K)]       0.07826654 [mEh/K]
  Correction S              0.000 [cal/(mol K)]        0.000 [J/(mol K)]       0.00000000 [mEh/K]

  Constant volume heat capacity, Cv
    Electronic Cv           0.000 [cal/(mol K)]        0.000 [J/(mol K)]       0.00000000 [mEh/K]
    Translational Cv        2.981 [cal/(mol K)]       12.472 [J/(mol K)]       0.00475022 [mEh/K]
    Rotational Cv           2.981 [cal/(mol K)]       12.472 [J/(mol K)]       0.00475022 [mEh/K]
    Vibrational Cv          0.200 [cal/(mol K)]        0.836 [J/(mol K)]       0.00031825 [mEh/K]
  Total Cv                  6.161 [cal/(mol K)]       25.779 [J/(mol K)]       0.00981868 [mEh/K]
  Correction Cv             0.000 [cal/(mol K)]        0.000 [J/(mol K)]       0.00000000 [mEh/K]

  Constant pressure heat capacity, Cp
    Electronic Cp           0.000 [cal/(mol K)]        0.000 [J/(mol K)]       0.00000000 [mEh/K]
    Translational Cp        4.968 [cal/(mol K)]       20.786 [J/(mol K)]       0.00791703 [mEh/K]
    Rotational Cp           2.981 [cal/(mol K)]       12.472 [J/(mol K)]       0.00475022 [mEh/K]
    Vibrational Cp          0.200 [cal/(mol K)]        0.836 [J/(mol K)]       0.00031825 [mEh/K]
  Total Cp                  8.149 [cal/(mol K)]       34.093 [J/(mol K)]       0.01298549 [mEh/K]
  Correction Cp             0.000 [cal/(mol K)]        0.000 [J/(mol K)]       0.00000000 [mEh/K]

  ==> Thermochemistry Energy Analysis <==

  Raw electronic energy, E0
  Total E0, Electronic energy at well bottom at 0 [K]                 -399.38486575 [Eh]

  Zero-point energy, ZPE_vib = Sum_i nu_i / 2
    Electronic ZPE          0.000 [kcal/mol]        0.000 [kJ/mol]       0.00000000 [Eh]
    Translational ZPE       0.000 [kcal/mol]        0.000 [kJ/mol]       0.00000000 [Eh]
    Rotational ZPE          0.000 [kcal/mol]        0.000 [kJ/mol]       0.00000000 [Eh]
    Vibrational ZPE         9.535 [kcal/mol]       39.893 [kJ/mol]       0.01519437 [Eh]        3334.778 [cm^-1]
  Correction ZPE            9.535 [kcal/mol]       39.893 [kJ/mol]       0.01519437 [Eh]        3334.778 [cm^-1]
  Total ZPE, Electronic energy at 0 [K]                               -399.36967138 [Eh]

  Thermal Energy, E (includes ZPE)
    Electronic E            0.000 [kcal/mol]        0.000 [kJ/mol]       0.00000000 [Eh]
    Translational E         0.889 [kcal/mol]        3.718 [kJ/mol]       0.00141628 [Eh]
    Rotational E            0.889 [kcal/mol]        3.718 [kJ/mol]       0.00141628 [Eh]
    Vibrational E           9.545 [kcal/mol]       39.935 [kJ/mol]       0.01521051 [Eh]
  Correction E             11.322 [kcal/mol]       47.372 [kJ/mol]       0.01804306 [Eh]
  Total E, Electronic energy at  298.15 [K]                           -399.36682268 [Eh]

  Enthalpy, H_trans = E_trans + k_B * T
    Electronic H            0.000 [kcal/mol]        0.000 [kJ/mol]       0.00000000 [Eh]
    Translational H         1.481 [kcal/mol]        6.197 [kJ/mol]       0.00236046 [Eh]
    Rotational H            0.889 [kcal/mol]        3.718 [kJ/mol]       0.00141628 [Eh]
    Vibrational H           9.545 [kcal/mol]       39.935 [kJ/mol]       0.01521051 [Eh]
  Correction H             11.915 [kcal/mol]       49.851 [kJ/mol]       0.01898725 [Eh]
  Total H, Enthalpy at  298.15 [K]                                    -399.36587850 [Eh]

  Gibbs free energy, G = H - T * S
    Electronic G            0.000 [kcal/mol]        0.000 [kJ/mol]       0.00000000 [Eh]
    Translational G        -9.402 [kcal/mol]      -39.336 [kJ/mol]      -0.01498243 [Eh]
    Rotational G           -2.860 [kcal/mol]      -11.965 [kJ/mol]      -0.00455710 [Eh]
    Vibrational G           9.533 [kcal/mol]       39.886 [kJ/mol]       0.01519161 [Eh]
  Correction G             -2.728 [kcal/mol]      -11.415 [kJ/mol]      -0.00434792 [Eh]
  Total G, Free enthalpy at  298.15 [K]                               -399.38921367 [Eh]

*** Psi4 exiting successfully. Buy a developer a beer!
