                               Psi4 1.3.2 release

  ==> Input File <==

--------------------------------------------------------------------------
memory 144 GB

molecule {
0 1
Cl 0.0000000000 0.0000000000 0.0000000000
H 0.0000000000 0.0000000000 1.2756042300
}

set dynamic_level 1
set basis cc-pV(Q+d)Z

optimize("wB97M-V")
frequencies("wB97M-V")
--------------------------------------------------------------------------

    Molecular point group: c2v
  Charge       = 0
  Multiplicity = 1
  Basis Set: CC-PV(Q+D)Z
    Blend: CC-PV(Q+D)Z
  Basis Set: (CC-PV(Q+D)Z AUX)
    Blend: CC-PVQZ-JKFIT
  @DF-RKS Final Energy:  -460.80280330756642
    Total Energy =                       -460.8028033075663643
    Molecular point group: c2v
  Basis Set: CC-PV(Q+D)Z
    Blend: CC-PV(Q+D)Z
  Basis Set: (CC-PV(Q+D)Z AUX)
    Blend: CC-PVQZ-JKFIT
  @DF-RKS Final Energy:  -460.80280339045129
    Total Energy =                       -460.8028033904512881
  Basis Set: CC-PV(Q+D)Z
    Blend: CC-PV(Q+D)Z
  Basis Set: (CC-PV(Q+D)Z AUX)
    Blend: CC-PVQZ-JKFIT
  @DF-RKS Final Energy:  -460.80279468638690
    Total Energy =                       -460.8027946863868465
  Basis Set: CC-PV(Q+D)Z
    Blend: CC-PV(Q+D)Z
  Basis Set: (CC-PV(Q+D)Z AUX)
    Blend: CC-PVQZ-JKFIT
  @DF-RKS Final Energy:  -460.80280440738767
    Total Energy =                       -460.8028044073876686
  @DF-RKS Final Energy:  -460.80280003600353
    Total Energy =                       -460.8028000360035321
  @DF-RKS Final Energy:  -460.80280030609640
    Total Energy =                       -460.8028003060964011
  **** Optimization is complete! (in 2 steps) ****
    Final optimized geometry and variables:
  @DF-RKS Final Energy:  -460.80280440738778
    Total Energy =                       -460.8028044073877822
  @DF-RKS Final Energy:  -460.80280003600359
    Total Energy =                       -460.8028000360035890
  Basis Set: CC-PV(Q+D)Z
    Blend: CC-PV(Q+D)Z
  Basis Set: (CC-PV(Q+D)Z AUX)
    Blend: CC-PVQZ-JKFIT
  @DF-RKS Final Energy:  -460.80280030609646
    Total Energy =                       -460.8028003060964579
  Basis Set: CC-PV(Q+D)Z
    Blend: CC-PV(Q+D)Z
  Basis Set: (CC-PV(Q+D)Z AUX)
    Blend: CC-PVQZ-JKFIT
  @DF-RKS Final Energy:  -460.80280440738801
    Total Energy =                       -460.8028044073880665
  Multiplicity = 1
  Basis Set: CC-PV(Q+D)Z
    Blend: CC-PV(Q+D)Z
  Basis Set: (CC-PV(Q+D)Z AUX)
    Blend: CC-PVQZ-JKFIT
  @DF-RKS Final Energy:  -460.80280003600399
    Total Energy =                       -460.8028000360039869
    Molecular point group: c2v

    Geometry (in Angstrom), charge = 0, multiplicity = 1:

       Center              X                  Y                   Z               Mass
    ------------   -----------------  -----------------  -----------------  -----------------
         CL           0.000000000000     0.000000000000    -0.035698487732    34.968852682000
         H            0.000000000000     0.000000000000     1.238642739100     1.007825032230

  Charge       = 0
  Multiplicity = 1
  Basis Set: CC-PV(Q+D)Z
    Blend: CC-PV(Q+D)Z
  Basis Set: (CC-PV(Q+D)Z AUX)
    Blend: CC-PVQZ-JKFIT

    Orbital Energies [Eh]
    ---------------------

    Doubly Occupied:

       1A1  -101.898279     2A1    -9.657363     3A1    -7.362119
       1B1    -7.354413     1B2    -7.354413     4A1    -0.967517
       5A1    -0.573742     2B1    -0.434516     2B2    -0.434516

  @DF-RKS Final Energy:  -460.80280030609697

   => Energetics <=

    Nuclear Repulsion Energy =              7.0593435980700256
    One-Electron Energy =                -649.9060395707173257
    Two-Electron Energy =                 203.9760602793318469
    DFT Exchange-Correlation Energy =     -22.0085593585300678
    Empirical Dispersion Energy =           0.0000000000000000
    VV10 Nonlocal Energy =                  0.0763947457485737
    Total Energy =                       -460.8028003060970264

  Dipole Moment: [D]
     X:     0.0000      Y:     0.0000      Z:     1.1361     Total:     1.1361

  Vibration                       6
  Freq [cm^-1]                2992.5716
  Irrep                           A1
  Reduced mass [u]              1.0360
  Force const [mDyne/A]         5.4664

  ==> Thermochemistry Components <==

  Entropy, S
    Electronic S            0.000 [cal/(mol K)]        0.000 [J/(mol K)]       0.00000000 [mEh/K] (multiplicity = 1)
    Translational S        36.671 [cal/(mol K)]      153.430 [J/(mol K)]       0.05843851 [mEh/K] (mol. weight = 35.9767 [u], P = 101325.00 [Pa])
    Rotational S            7.904 [cal/(mol K)]       33.070 [J/(mol K)]       0.01259577 [mEh/K] (symmetry no. = 1)
    Vibrational S           0.000 [cal/(mol K)]        0.000 [J/(mol K)]       0.00000003 [mEh/K]
  Total S                  44.575 [cal/(mol K)]      186.501 [J/(mol K)]       0.07103430 [mEh/K]
  Correction S              0.000 [cal/(mol K)]        0.000 [J/(mol K)]       0.00000000 [mEh/K]

  Constant volume heat capacity, Cv
    Electronic Cv           0.000 [cal/(mol K)]        0.000 [J/(mol K)]       0.00000000 [mEh/K]
    Translational Cv        2.981 [cal/(mol K)]       12.472 [J/(mol K)]       0.00475022 [mEh/K]
    Rotational Cv           1.987 [cal/(mol K)]        8.314 [J/(mol K)]       0.00316681 [mEh/K]
    Vibrational Cv          0.000 [cal/(mol K)]        0.001 [J/(mol K)]       0.00000035 [mEh/K]
  Total Cv                  4.968 [cal/(mol K)]       20.787 [J/(mol K)]       0.00791738 [mEh/K]
  Correction Cv             0.000 [cal/(mol K)]        0.000 [J/(mol K)]       0.00000000 [mEh/K]

  Constant pressure heat capacity, Cp
    Electronic Cp           0.000 [cal/(mol K)]        0.000 [J/(mol K)]       0.00000000 [mEh/K]
    Translational Cp        4.968 [cal/(mol K)]       20.786 [J/(mol K)]       0.00791703 [mEh/K]
    Rotational Cp           1.987 [cal/(mol K)]        8.314 [J/(mol K)]       0.00316681 [mEh/K]
    Vibrational Cp          0.000 [cal/(mol K)]        0.001 [J/(mol K)]       0.00000035 [mEh/K]
  Total Cp                  6.955 [cal/(mol K)]       29.102 [J/(mol K)]       0.01108419 [mEh/K]
  Correction Cp             0.000 [cal/(mol K)]        0.000 [J/(mol K)]       0.00000000 [mEh/K]

  ==> Thermochemistry Energy Analysis <==

  Raw electronic energy, E0
  Total E0, Electronic energy at well bottom at 0 [K]                 -460.80280441 [Eh]

  Zero-point energy, ZPE_vib = Sum_i nu_i / 2
    Electronic ZPE          0.000 [kcal/mol]        0.000 [kJ/mol]       0.00000000 [Eh]
    Translational ZPE       0.000 [kcal/mol]        0.000 [kJ/mol]       0.00000000 [Eh]
    Rotational ZPE          0.000 [kcal/mol]        0.000 [kJ/mol]       0.00000000 [Eh]
    Vibrational ZPE         4.278 [kcal/mol]       17.900 [kJ/mol]       0.00681758 [Eh]        1496.286 [cm^-1]
  Correction ZPE            4.278 [kcal/mol]       17.900 [kJ/mol]       0.00681758 [Eh]        1496.286 [cm^-1]
  Total ZPE, Electronic energy at 0 [K]                               -460.79598683 [Eh]

  Thermal Energy, E (includes ZPE)
    Electronic E            0.000 [kcal/mol]        0.000 [kJ/mol]       0.00000000 [Eh]
    Translational E         0.889 [kcal/mol]        3.718 [kJ/mol]       0.00141628 [Eh]
    Rotational E            0.592 [kcal/mol]        2.479 [kJ/mol]       0.00094418 [Eh]
    Vibrational E           4.278 [kcal/mol]       17.900 [kJ/mol]       0.00681759 [Eh]
  Correction E              5.759 [kcal/mol]       24.097 [kJ/mol]       0.00917805 [Eh]
  Total E, Electronic energy at  298.15 [K]                           -460.79362636 [Eh]

  Enthalpy, H_trans = E_trans + k_B * T
    Electronic H            0.000 [kcal/mol]        0.000 [kJ/mol]       0.00000000 [Eh]
    Translational H         1.481 [kcal/mol]        6.197 [kJ/mol]       0.00236046 [Eh]
    Rotational H            0.592 [kcal/mol]        2.479 [kJ/mol]       0.00094418 [Eh]
    Vibrational H           4.278 [kcal/mol]       17.900 [kJ/mol]       0.00681759 [Eh]
  Correction H              6.352 [kcal/mol]       26.576 [kJ/mol]       0.01012223 [Eh]
  Total H, Enthalpy at  298.15 [K]                                    -460.79268217 [Eh]

  Gibbs free energy, G = H - T * S
    Electronic G            0.000 [kcal/mol]        0.000 [kJ/mol]       0.00000000 [Eh]
    Translational G        -9.452 [kcal/mol]      -39.548 [kJ/mol]      -0.01506298 [Eh]
    Rotational G           -1.764 [kcal/mol]       -7.381 [kJ/mol]      -0.00281124 [Eh]
    Vibrational G           4.278 [kcal/mol]       17.900 [kJ/mol]       0.00681758 [Eh]
  Correction G             -6.938 [kcal/mol]      -29.029 [kJ/mol]      -0.01105664 [Eh]
  Total G, Free enthalpy at  298.15 [K]                               -460.81386105 [Eh]

*** Psi4 exiting successfully. Buy a developer a beer!
