                               Psi4 1.3.2 release

  ==> Input File <==

--------------------------------------------------------------------------
memory 144 GB

molecule {
0 1
H 0.0000000000 0.0000000000 0.0000000000
C 0.0000000000 0.0000000000 1.0668000000
N 0.0000000000 0.0000000000 2.2232000000
}

set dynamic_level 1
set basis cc-pV(Q+d)Z

optimize("wB97M-V")
frequencies("wB97M-V")
--------------------------------------------------------------------------

    Molecular point group: c2v
  Charge       = 0
  Multiplicity = 1
  Basis Set: CC-PV(Q+D)Z
    Blend: CC-PV(Q+D)Z
  Basis Set: (CC-PV(Q+D)Z AUX)
    Blend: CC-PVQZ-JKFIT
  @DF-RKS Final Energy:   -93.43578107734326
    Total Energy =                        -93.4357810773432647
    Molecular point group: c2v
  Basis Set: CC-PV(Q+D)Z
    Blend: CC-PV(Q+D)Z
  Basis Set: (CC-PV(Q+D)Z AUX)
    Blend: CC-PVQZ-JKFIT
  @DF-RKS Final Energy:   -93.43577101179835
    Total Energy =                        -93.4357710117983515
  Basis Set: CC-PV(Q+D)Z
    Blend: CC-PV(Q+D)Z
  Basis Set: (CC-PV(Q+D)Z AUX)
    Blend: CC-PVQZ-JKFIT
  @DF-RKS Final Energy:   -93.43578085900711
    Total Energy =                        -93.4357808590071102
  Basis Set: CC-PV(Q+D)Z
    Blend: CC-PV(Q+D)Z
  Basis Set: (CC-PV(Q+D)Z AUX)
    Blend: CC-PVQZ-JKFIT
  @DF-RKS Final Energy:   -93.43571780959975
    Total Energy =                        -93.4357178095997654
  @DF-RKS Final Energy:   -93.43583910784712
    Total Energy =                        -93.4358391078471016
  @DF-RKS Final Energy:   -93.43617332600161
    Total Energy =                        -93.4361733260016081
  @DF-RKS Final Energy:   -93.43616696759408
    Total Energy =                        -93.4361669675940760
  @DF-RKS Final Energy:   -93.43616932718747
    Total Energy =                        -93.4361693271874714
  @DF-RKS Final Energy:   -93.43616942621810
    Total Energy =                        -93.4361694262181004
  @DF-RKS Final Energy:   -93.43617158563877
    Total Energy =                        -93.4361715856387747
  @DF-RKS Final Energy:   -93.43617357318186
    Total Energy =                        -93.4361735731818612
  @DF-RKS Final Energy:   -93.43616846292268
    Total Energy =                        -93.4361684629226801
  @DF-RKS Final Energy:   -93.43616830748617
    Total Energy =                        -93.4361683074861702
  @DF-RKS Final Energy:   -93.43617078507761
    Total Energy =                        -93.4361707850776071
  @DF-RKS Final Energy:   -93.43617071134078
    Total Energy =                        -93.4361707113407789
  **** Optimization is complete! (in 3 steps) ****
    Final optimized geometry and variables:
  @DF-RKS Final Energy:   -93.43617357318149
    Total Energy =                        -93.4361735731814917
  @DF-RKS Final Energy:   -93.43616846292262
    Total Energy =                        -93.4361684629226374
  @DF-RKS Final Energy:   -93.43616830748633
    Total Energy =                        -93.4361683074863265
  @DF-RKS Final Energy:   -93.43617078507741
    Total Energy =                        -93.4361707850774081
  @DF-RKS Final Energy:   -93.43617071134045
    Total Energy =                        -93.4361707113404378
  @DF-RKS Final Energy:   -93.43617357318180
    Total Energy =                        -93.4361735731818044
  @DF-RKS Final Energy:   -93.43616846292295
    Total Energy =                        -93.4361684629229359
  @DF-RKS Final Energy:   -93.43616830748653
    Total Energy =                        -93.4361683074865255
  @DF-RKS Final Energy:   -93.43617078507768
    Total Energy =                        -93.4361707850776924
  @DF-RKS Final Energy:   -93.43617071134074
    Total Energy =                        -93.4361707113407363
  Basis Set: CC-PV(Q+D)Z
    Blend: CC-PV(Q+D)Z
  Basis Set: (CC-PV(Q+D)Z AUX)
    Blend: CC-PVQZ-JKFIT
  @DF-RKS Final Energy:   -93.43616774500478
    Total Energy =                        -93.4361677450047665
  Basis Set: CC-PV(Q+D)Z
    Blend: CC-PV(Q+D)Z
  Basis Set: (CC-PV(Q+D)Z AUX)
    Blend: CC-PVQZ-JKFIT
  @DF-RKS Final Energy:   -93.43616794816269
    Total Energy =                        -93.4361679481626908
  Multiplicity = 1
  Basis Set: CC-PV(Q+D)Z
    Blend: CC-PV(Q+D)Z
  Basis Set: (CC-PV(Q+D)Z AUX)
    Blend: CC-PVQZ-JKFIT
  @DF-RKS Final Energy:   -93.43617329517988
    Total Energy =                        -93.4361732951798842
    Molecular point group: cs

    Geometry (in Angstrom), charge = 0, multiplicity = 1:

       Center              X                  Y                   Z               Mass
    ------------   -----------------  -----------------  -----------------  -----------------
         H            0.000000000000    -0.002246995264    -1.618117497419     1.007825032230
         C            0.000000000000     0.000364510568    -0.553012852396    12.000000000000
         N            0.000000000000    -0.000150648974     0.590365625799    14.003074004430

  Charge       = 0
  Multiplicity = 1
  Basis Set: CC-PV(Q+D)Z
    Blend: CC-PV(Q+D)Z
  Basis Set: (CC-PV(Q+D)Z AUX)
    Blend: CC-PVQZ-JKFIT

    Orbital Energies [Eh]
    ---------------------

    Doubly Occupied:

       1Ap   -14.526939     2Ap   -10.394121     3Ap    -1.053196
       4Ap    -0.719822     5Ap    -0.496752     1App   -0.471604
       6Ap    -0.471604

  @DF-RKS Final Energy:   -93.43617329516304

   => Energetics <=

    Nuclear Repulsion Energy =             24.0966489188948891
    One-Electron Energy =                -173.1819780946145784
    Two-Electron Energy =                  64.5650800982893571
    DFT Exchange-Correlation Energy =      -8.9742987994980972
    Empirical Dispersion Energy =           0.0000000000000000
    VV10 Nonlocal Energy =                  0.0583745817653885
    Total Energy =                        -93.4361732951630444

  Dipole Moment: [D]
     X:     0.0000      Y:    -0.0024      Z:    -3.0277     Total:     3.0277

  Vibration                       6                   7                   8
  Freq [cm^-1]                 766.6077            766.6309           2234.7612
  Irrep                           B1                  B2                  A1
  Reduced mass [u]              1.3451              1.3451              4.9787
  Force const [mDyne/A]         0.4658              0.4658             14.6497

  Vibration                       9
  Freq [cm^-1]                3456.1491
  Irrep                           A1
  Reduced mass [u]              1.1975
  Force const [mDyne/A]         8.4279

  ==> Thermochemistry Components <==

  Entropy, S
    Electronic S            0.000 [cal/(mol K)]        0.000 [J/(mol K)]       0.00000000 [mEh/K] (multiplicity = 1)
    Translational S        35.816 [cal/(mol K)]      149.856 [J/(mol K)]       0.05707695 [mEh/K] (mol. weight = 27.0109 [u], P = 101325.00 [Pa])
    Rotational S           11.772 [cal/(mol K)]       49.254 [J/(mol K)]       0.01876002 [mEh/K] (symmetry no. = 1)
    Vibrational S           0.473 [cal/(mol K)]        1.979 [J/(mol K)]       0.00075373 [mEh/K]
  Total S                  48.061 [cal/(mol K)]      201.089 [J/(mol K)]       0.07659070 [mEh/K]
  Correction S              0.000 [cal/(mol K)]        0.000 [J/(mol K)]       0.00000000 [mEh/K]

  Constant volume heat capacity, Cv
    Electronic Cv           0.000 [cal/(mol K)]        0.000 [J/(mol K)]       0.00000000 [mEh/K]
    Translational Cv        2.981 [cal/(mol K)]       12.472 [J/(mol K)]       0.00475022 [mEh/K]
    Rotational Cv           1.987 [cal/(mol K)]        8.314 [J/(mol K)]       0.00316681 [mEh/K]
    Vibrational Cv          1.419 [cal/(mol K)]        5.939 [J/(mol K)]       0.00226208 [mEh/K]
  Total Cv                  6.387 [cal/(mol K)]       26.725 [J/(mol K)]       0.01017910 [mEh/K]
  Correction Cv             0.000 [cal/(mol K)]        0.000 [J/(mol K)]       0.00000000 [mEh/K]

  Constant pressure heat capacity, Cp
    Electronic Cp           0.000 [cal/(mol K)]        0.000 [J/(mol K)]       0.00000000 [mEh/K]
    Translational Cp        4.968 [cal/(mol K)]       20.786 [J/(mol K)]       0.00791703 [mEh/K]
    Rotational Cp           1.987 [cal/(mol K)]        8.314 [J/(mol K)]       0.00316681 [mEh/K]
    Vibrational Cp          1.419 [cal/(mol K)]        5.939 [J/(mol K)]       0.00226208 [mEh/K]
  Total Cp                  8.375 [cal/(mol K)]       35.040 [J/(mol K)]       0.01334591 [mEh/K]
  Correction Cp             0.000 [cal/(mol K)]        0.000 [J/(mol K)]       0.00000000 [mEh/K]

  ==> Thermochemistry Energy Analysis <==

  Raw electronic energy, E0
  Total E0, Electronic energy at well bottom at 0 [K]                  -93.43617357 [Eh]

  Zero-point energy, ZPE_vib = Sum_i nu_i / 2
    Electronic ZPE          0.000 [kcal/mol]        0.000 [kJ/mol]       0.00000000 [Eh]
    Translational ZPE       0.000 [kcal/mol]        0.000 [kJ/mol]       0.00000000 [Eh]
    Rotational ZPE          0.000 [kcal/mol]        0.000 [kJ/mol]       0.00000000 [Eh]
    Vibrational ZPE        10.327 [kcal/mol]       43.210 [kJ/mol]       0.01645782 [Eh]        3612.074 [cm^-1]
  Correction ZPE           10.327 [kcal/mol]       43.210 [kJ/mol]       0.01645782 [Eh]        3612.074 [cm^-1]
  Total ZPE, Electronic energy at 0 [K]                                -93.41971575 [Eh]

  Thermal Energy, E (includes ZPE)
    Electronic E            0.000 [kcal/mol]        0.000 [kJ/mol]       0.00000000 [Eh]
    Translational E         0.889 [kcal/mol]        3.718 [kJ/mol]       0.00141628 [Eh]
    Rotational E            0.592 [kcal/mol]        2.479 [kJ/mol]       0.00094418 [Eh]
    Vibrational E          10.439 [kcal/mol]       43.676 [kJ/mol]       0.01663523 [Eh]
  Correction E             11.920 [kcal/mol]       49.873 [kJ/mol]       0.01899569 [Eh]
  Total E, Electronic energy at  298.15 [K]                            -93.41717788 [Eh]

  Enthalpy, H_trans = E_trans + k_B * T
    Electronic H            0.000 [kcal/mol]        0.000 [kJ/mol]       0.00000000 [Eh]
    Translational H         1.481 [kcal/mol]        6.197 [kJ/mol]       0.00236046 [Eh]
    Rotational H            0.592 [kcal/mol]        2.479 [kJ/mol]       0.00094418 [Eh]
    Vibrational H          10.439 [kcal/mol]       43.676 [kJ/mol]       0.01663523 [Eh]
  Correction H             12.512 [kcal/mol]       52.352 [kJ/mol]       0.01993987 [Eh]
  Total H, Enthalpy at  298.15 [K]                                     -93.41623370 [Eh]

  Gibbs free energy, G = H - T * S
    Electronic G            0.000 [kcal/mol]        0.000 [kJ/mol]       0.00000000 [Eh]
    Translational G        -9.197 [kcal/mol]      -38.482 [kJ/mol]      -0.01465703 [Eh]
    Rotational G           -2.917 [kcal/mol]      -12.206 [kJ/mol]      -0.00464911 [Eh]
    Vibrational G          10.298 [kcal/mol]       43.086 [kJ/mol]       0.01641050 [Eh]
  Correction G             -1.817 [kcal/mol]       -7.603 [kJ/mol]      -0.00289564 [Eh]
  Total G, Free enthalpy at  298.15 [K]                                -93.43906922 [Eh]

*** Psi4 exiting successfully. Buy a developer a beer!
