                               Psi4 1.3.2 release

  ==> Input File <==

--------------------------------------------------------------------------
memory 144 GB

molecule {
0 1
F 0.0000000000 0.0000000000 0.0000000000
H 0.0000000000 0.0000000000 0.9157690000
}

set dynamic_level 1
set basis cc-pV(Q+d)Z

optimize("wB97M-V")
frequencies("wB97M-V")
--------------------------------------------------------------------------

    Molecular point group: c2v
  Charge       = 0
  Multiplicity = 1
  Basis Set: CC-PV(Q+D)Z
    Blend: CC-PV(Q+D)Z
  Basis Set: (CC-PV(Q+D)Z AUX)
    Blend: CC-PVQZ-JKFIT
  @DF-RKS Final Energy:  -100.46342360656065
    Total Energy =                       -100.4634236065606672
    Molecular point group: c2v
  Basis Set: CC-PV(Q+D)Z
    Blend: CC-PV(Q+D)Z
  Basis Set: (CC-PV(Q+D)Z AUX)
    Blend: CC-PVQZ-JKFIT
  @DF-RKS Final Energy:  -100.46343801102893
    Total Energy =                       -100.4634380110289129
  Basis Set: CC-PV(Q+D)Z
    Blend: CC-PV(Q+D)Z
  Basis Set: (CC-PV(Q+D)Z AUX)
    Blend: CC-PVQZ-JKFIT
  @DF-RKS Final Energy:  -100.46339269499880
    Total Energy =                       -100.4633926949987881
  Basis Set: CC-PV(Q+D)Z
    Blend: CC-PV(Q+D)Z
  Basis Set: (CC-PV(Q+D)Z AUX)
    Blend: CC-PVQZ-JKFIT
  @DF-RKS Final Energy:  -100.46343917535748
    Total Energy =                       -100.4634391753574647
  @DF-RKS Final Energy:  -100.46343243144683
    Total Energy =                       -100.4634324314468330
  @DF-RKS Final Energy:  -100.46342983016801
    Total Energy =                       -100.4634298301679962
  **** Optimization is complete! (in 2 steps) ****
    Final optimized geometry and variables:
  @DF-RKS Final Energy:  -100.46343917535738
    Total Energy =                       -100.4634391753573794
  @DF-RKS Final Energy:  -100.46343243144679
    Total Energy =                       -100.4634324314467904
  Basis Set: CC-PV(Q+D)Z
    Blend: CC-PV(Q+D)Z
  Basis Set: (CC-PV(Q+D)Z AUX)
    Blend: CC-PVQZ-JKFIT
  @DF-RKS Final Energy:  -100.46342983014407
    Total Energy =                       -100.4634298301440651
  Basis Set: CC-PV(Q+D)Z
    Blend: CC-PV(Q+D)Z
  Basis Set: (CC-PV(Q+D)Z AUX)
    Blend: CC-PVQZ-JKFIT
  @DF-RKS Final Energy:  -100.46343917535745
    Total Energy =                       -100.4634391753574505
  Multiplicity = 1
  Basis Set: CC-PV(Q+D)Z
    Blend: CC-PV(Q+D)Z
  Basis Set: (CC-PV(Q+D)Z AUX)
    Blend: CC-PVQZ-JKFIT
  @DF-RKS Final Energy:  -100.46343243144663
    Total Energy =                       -100.4634324314466340
    Molecular point group: c2v

    Geometry (in Angstrom), charge = 0, multiplicity = 1:

       Center              X                  Y                   Z               Mass
    ------------   -----------------  -----------------  -----------------  -----------------
         F            0.000000000000     0.000000000000    -0.046174677425    18.998403162730
         H            0.000000000000     0.000000000000     0.870433963805     1.007825032230

  Charge       = 0
  Multiplicity = 1
  Basis Set: CC-PV(Q+D)Z
    Blend: CC-PV(Q+D)Z
  Basis Set: (CC-PV(Q+D)Z AUX)
    Blend: CC-PVQZ-JKFIT

    Orbital Energies [Eh]
    ---------------------

    Doubly Occupied:

       1A1   -24.888658     2A1    -1.330728     3A1    -0.658727
       1B2    -0.523809     1B1    -0.523809

  @DF-RKS Final Energy:  -100.46342983014398

   => Energetics <=

    Nuclear Repulsion Energy =              5.1958869705175665
    One-Electron Energy =                -150.5187433686380416
    Two-Electron Energy =                  52.7345262372790273
    DFT Exchange-Correlation Energy =      -7.9184944264954789
    Empirical Dispersion Energy =           0.0000000000000000
    VV10 Nonlocal Energy =                  0.0433947571929558
    Total Energy =                       -100.4634298301439799

  Dipole Moment: [D]
     X:     0.0000      Y:     0.0000      Z:     1.8078     Total:     1.8078

  Vibration                       6
  Freq [cm^-1]                4123.8274
  Irrep                           A1
  Reduced mass [u]              1.0583
  Force const [mDyne/A]        10.6039

  ==> Thermochemistry Components <==

  Entropy, S
    Electronic S            0.000 [cal/(mol K)]        0.000 [J/(mol K)]       0.00000000 [mEh/K] (multiplicity = 1)
    Translational S        34.921 [cal/(mol K)]      146.112 [J/(mol K)]       0.05565095 [mEh/K] (mol. weight = 20.0062 [u], P = 101325.00 [Pa])
    Rotational S            6.552 [cal/(mol K)]       27.412 [J/(mol K)]       0.01044050 [mEh/K] (symmetry no. = 1)
    Vibrational S           0.000 [cal/(mol K)]        0.000 [J/(mol K)]       0.00000000 [mEh/K]
  Total S                  41.473 [cal/(mol K)]      173.523 [J/(mol K)]       0.06609145 [mEh/K]
  Correction S              0.000 [cal/(mol K)]        0.000 [J/(mol K)]       0.00000000 [mEh/K]

  Constant volume heat capacity, Cv
    Electronic Cv           0.000 [cal/(mol K)]        0.000 [J/(mol K)]       0.00000000 [mEh/K]
    Translational Cv        2.981 [cal/(mol K)]       12.472 [J/(mol K)]       0.00475022 [mEh/K]
    Rotational Cv           1.987 [cal/(mol K)]        8.314 [J/(mol K)]       0.00316681 [mEh/K]
    Vibrational Cv          0.000 [cal/(mol K)]        0.000 [J/(mol K)]       0.00000000 [mEh/K]
  Total Cv                  4.968 [cal/(mol K)]       20.786 [J/(mol K)]       0.00791703 [mEh/K]
  Correction Cv             0.000 [cal/(mol K)]        0.000 [J/(mol K)]       0.00000000 [mEh/K]

  Constant pressure heat capacity, Cp
    Electronic Cp           0.000 [cal/(mol K)]        0.000 [J/(mol K)]       0.00000000 [mEh/K]
    Translational Cp        4.968 [cal/(mol K)]       20.786 [J/(mol K)]       0.00791703 [mEh/K]
    Rotational Cp           1.987 [cal/(mol K)]        8.314 [J/(mol K)]       0.00316681 [mEh/K]
    Vibrational Cp          0.000 [cal/(mol K)]        0.000 [J/(mol K)]       0.00000000 [mEh/K]
  Total Cp                  6.955 [cal/(mol K)]       29.101 [J/(mol K)]       0.01108384 [mEh/K]
  Correction Cp             0.000 [cal/(mol K)]        0.000 [J/(mol K)]       0.00000000 [mEh/K]

  ==> Thermochemistry Energy Analysis <==

  Raw electronic energy, E0
  Total E0, Electronic energy at well bottom at 0 [K]                 -100.46343918 [Eh]

  Zero-point energy, ZPE_vib = Sum_i nu_i / 2
    Electronic ZPE          0.000 [kcal/mol]        0.000 [kJ/mol]       0.00000000 [Eh]
    Translational ZPE       0.000 [kcal/mol]        0.000 [kJ/mol]       0.00000000 [Eh]
    Rotational ZPE          0.000 [kcal/mol]        0.000 [kJ/mol]       0.00000000 [Eh]
    Vibrational ZPE         5.895 [kcal/mol]       24.666 [kJ/mol]       0.00939477 [Eh]        2061.914 [cm^-1]
  Correction ZPE            5.895 [kcal/mol]       24.666 [kJ/mol]       0.00939477 [Eh]        2061.914 [cm^-1]
  Total ZPE, Electronic energy at 0 [K]                               -100.45404441 [Eh]

  Thermal Energy, E (includes ZPE)
    Electronic E            0.000 [kcal/mol]        0.000 [kJ/mol]       0.00000000 [Eh]
    Translational E         0.889 [kcal/mol]        3.718 [kJ/mol]       0.00141628 [Eh]
    Rotational E            0.592 [kcal/mol]        2.479 [kJ/mol]       0.00094418 [Eh]
    Vibrational E           5.895 [kcal/mol]       24.666 [kJ/mol]       0.00939477 [Eh]
  Correction E              7.377 [kcal/mol]       30.863 [kJ/mol]       0.01175523 [Eh]
  Total E, Electronic energy at  298.15 [K]                           -100.45168394 [Eh]

  Enthalpy, H_trans = E_trans + k_B * T
    Electronic H            0.000 [kcal/mol]        0.000 [kJ/mol]       0.00000000 [Eh]
    Translational H         1.481 [kcal/mol]        6.197 [kJ/mol]       0.00236046 [Eh]
    Rotational H            0.592 [kcal/mol]        2.479 [kJ/mol]       0.00094418 [Eh]
    Vibrational H           5.895 [kcal/mol]       24.666 [kJ/mol]       0.00939477 [Eh]
  Correction H              7.969 [kcal/mol]       33.342 [kJ/mol]       0.01269942 [Eh]
  Total H, Enthalpy at  298.15 [K]                                    -100.45073976 [Eh]

  Gibbs free energy, G = H - T * S
    Electronic G            0.000 [kcal/mol]        0.000 [kJ/mol]       0.00000000 [Eh]
    Translational G        -8.931 [kcal/mol]      -37.366 [kJ/mol]      -0.01423187 [Eh]
    Rotational G           -1.361 [kcal/mol]       -5.694 [kJ/mol]      -0.00216865 [Eh]
    Vibrational G           5.895 [kcal/mol]       24.666 [kJ/mol]       0.00939477 [Eh]
  Correction G             -4.396 [kcal/mol]      -18.394 [kJ/mol]      -0.00700575 [Eh]
  Total G, Free enthalpy at  298.15 [K]                               -100.47044492 [Eh]

*** Psi4 exiting successfully. Buy a developer a beer!
