                               Psi4 1.3.2 release

  ==> Input File <==

--------------------------------------------------------------------------
memory 144 GB

molecule {
0 1
N 0.0000000000 0.0000000000 0.0000000000
H 0.0000000000 0.0000000000 1.0535284100
O 1.1513717966 0.0000000000 -0.3743228181
}

set dynamic_level 1
set basis cc-pV(Q+d)Z

optimize("wB97M-V")
frequencies("wB97M-V")
--------------------------------------------------------------------------

    Molecular point group: cs
  Charge       = 0
  Multiplicity = 1
  Basis Set: CC-PV(Q+D)Z
    Blend: CC-PV(Q+D)Z
  Basis Set: (CC-PV(Q+D)Z AUX)
    Blend: CC-PVQZ-JKFIT
  @DF-RKS Final Energy:  -130.49735195158135
    Total Energy =                       -130.4973519515813507
    Molecular point group: cs
  Basis Set: CC-PV(Q+D)Z
    Blend: CC-PV(Q+D)Z
  Basis Set: (CC-PV(Q+D)Z AUX)
    Blend: CC-PVQZ-JKFIT
  @DF-RKS Final Energy:  -130.49739330888880
    Total Energy =                       -130.4973933088888032
  Basis Set: CC-PV(Q+D)Z
    Blend: CC-PV(Q+D)Z
  Basis Set: (CC-PV(Q+D)Z AUX)
    Blend: CC-PVQZ-JKFIT
  @DF-RKS Final Energy:  -130.49730813051372
    Total Energy =                       -130.4973081305136873
  Basis Set: CC-PV(Q+D)Z
    Blend: CC-PV(Q+D)Z
  Basis Set: (CC-PV(Q+D)Z AUX)
    Blend: CC-PVQZ-JKFIT
  @DF-RKS Final Energy:  -130.49736014083769
    Total Energy =                       -130.4973601408376851
  @DF-RKS Final Energy:  -130.49733847741635
    Total Energy =                       -130.4973384774163492
  @DF-RKS Final Energy:  -130.49735807306411
    Total Energy =                       -130.4973580730641345
  @DF-RKS Final Energy:  -130.49734034729508
    Total Energy =                       -130.4973403472950793
  @DF-RKS Final Energy:  -130.49770445730636
    Total Energy =                       -130.4977044573063552
  @DF-RKS Final Energy:  -130.49771383825606
    Total Energy =                       -130.4977138382560611
  @DF-RKS Final Energy:  -130.49769239679577
    Total Energy =                       -130.4976923967957703
  @DF-RKS Final Energy:  -130.49770237942150
    Total Energy =                       -130.4977023794214972
  @DF-RKS Final Energy:  -130.49770126474561
    Total Energy =                       -130.4977012647456149
  @DF-RKS Final Energy:  -130.49769213672829
    Total Energy =                       -130.4976921367282898
  @DF-RKS Final Energy:  -130.49771123357638
    Total Energy =                       -130.4977112335763820
  @DF-RKS Final Energy:  -130.49772196183463
    Total Energy =                       -130.4977219618346567
  @DF-RKS Final Energy:  -130.49771506555052
    Total Energy =                       -130.4977150655505511
  @DF-RKS Final Energy:  -130.49772609649779
    Total Energy =                       -130.4977260964977859
  @DF-RKS Final Energy:  -130.49772785366733
    Total Energy =                       -130.4977278536673282
  @DF-RKS Final Energy:  -130.49771093196023
    Total Energy =                       -130.4977109319602562
  @DF-RKS Final Energy:  -130.49772097928434
    Total Energy =                       -130.4977209792843382
  **** Optimization is complete! (in 4 steps) ****
    Final optimized geometry and variables:
  @DF-RKS Final Energy:  -130.49774047197937
    Total Energy =                       -130.4977404719793697
  @DF-RKS Final Energy:  -130.49773932812658
    Total Energy =                       -130.4977393281265563
  @DF-RKS Final Energy:  -130.49773887673001
    Total Energy =                       -130.4977388767300113
  @DF-RKS Final Energy:  -130.49773806729598
    Total Energy =                       -130.4977380672959839
  @DF-RKS Final Energy:  -130.49773772933017
    Total Energy =                       -130.4977377293301686
  @DF-RKS Final Energy:  -130.49773707046506
    Total Energy =                       -130.4977370704650639
  @DF-RKS Final Energy:  -130.49773840317332
    Total Energy =                       -130.4977384031733436
  @DF-RKS Final Energy:  -130.49774047197963
    Total Energy =                       -130.4977404719796255
  @DF-RKS Final Energy:  -130.49773932812681
    Total Energy =                       -130.4977393281268405
  @DF-RKS Final Energy:  -130.49773887673021
    Total Energy =                       -130.4977388767302386
  @DF-RKS Final Energy:  -130.49773806729627
    Total Energy =                       -130.4977380672962681
  @DF-RKS Final Energy:  -130.49773772933051
    Total Energy =                       -130.4977377293305381
  @DF-RKS Final Energy:  -130.49773707046529
    Total Energy =                       -130.4977370704652913
  @DF-RKS Final Energy:  -130.49773840317380
    Total Energy =                       -130.4977384031737984
  @DF-RKS Final Energy:  -130.49773633003679
    Total Energy =                       -130.4977363300367870
  @DF-RKS Final Energy:  -130.49773712188335
    Total Energy =                       -130.4977371218833184
  Basis Set: CC-PV(Q+D)Z
    Blend: CC-PV(Q+D)Z
  Basis Set: (CC-PV(Q+D)Z AUX)
    Blend: CC-PVQZ-JKFIT
  @DF-RKS Final Energy:  -130.49773635067004
    Total Energy =                       -130.4977363506700385
  Basis Set: CC-PV(Q+D)Z
    Blend: CC-PV(Q+D)Z
  Basis Set: (CC-PV(Q+D)Z AUX)
    Blend: CC-PVQZ-JKFIT
  @DF-RKS Final Energy:  -130.49773546314862
    Total Energy =                       -130.4977354631486151
  Multiplicity = 1
  Basis Set: CC-PV(Q+D)Z
    Blend: CC-PV(Q+D)Z
  Basis Set: (CC-PV(Q+D)Z AUX)
    Blend: CC-PVQZ-JKFIT
  @DF-RKS Final Energy:  -130.49773851520462
    Total Energy =                       -130.4977385152046168
    Molecular point group: cs

    Geometry (in Angstrom), charge = 0, multiplicity = 1:

       Center              X                  Y                   Z               Mass
    ------------   -----------------  -----------------  -----------------  -----------------
         N            0.585723594972     0.155686351424     0.000000000000    14.003074004430
         H            0.589714948246     1.211556295862     0.000000000000     1.007825032230
         O           -0.549941062048    -0.212637850485     0.000000000000    15.994914619570

  Charge       = 0
  Multiplicity = 1
  Basis Set: CC-PV(Q+D)Z
    Blend: CC-PV(Q+D)Z
  Basis Set: (CC-PV(Q+D)Z AUX)
    Blend: CC-PVQZ-JKFIT

    Orbital Energies [Eh]
    ---------------------

    Doubly Occupied:

       1Ap   -19.414690     2Ap   -14.630588     3Ap    -1.314870
       4Ap    -0.848079     5Ap    -0.650382     1App   -0.575108
       6Ap    -0.570217     7Ap    -0.351115

  @DF-RKS Final Energy:  -130.49773752020150

   => Energetics <=

    Nuclear Repulsion Energy =             30.6502171961054444
    One-Electron Energy =                -238.4579893196221292
    Two-Electron Energy =                  88.6226341699723434
    DFT Exchange-Correlation Energy =     -11.3795469421526239
    Empirical Dispersion Energy =           0.0000000000000000
    VV10 Nonlocal Energy =                  0.0669473754954905
    Total Energy =                       -130.4977375202014684

  Dipole Moment: [D]
     X:     0.4422      Y:     1.6376      Z:     0.0000     Total:     1.6962

  Vibration                       7                   8                   9
  Freq [cm^-1]                1579.9481           1716.2522           2945.5259
  Irrep                           Ap                  Ap                  Ap
  Reduced mass [u]              1.2073             10.0981              1.0760
  Force const [mDyne/A]         1.7756             17.5248              5.5004

  ==> Thermochemistry Components <==

  Entropy, S
    Electronic S            0.000 [cal/(mol K)]        0.000 [J/(mol K)]       0.00000000 [mEh/K] (multiplicity = 1)
    Translational S        36.227 [cal/(mol K)]      151.576 [J/(mol K)]       0.05773217 [mEh/K] (mol. weight = 31.0058 [u], P = 101325.00 [Pa])
    Rotational S           16.440 [cal/(mol K)]       68.784 [J/(mol K)]       0.02619830 [mEh/K] (symmetry no. = 1)
    Vibrational S           0.013 [cal/(mol K)]        0.055 [J/(mol K)]       0.00002082 [mEh/K]
  Total S                  52.680 [cal/(mol K)]      220.414 [J/(mol K)]       0.08395129 [mEh/K]
  Correction S              0.000 [cal/(mol K)]        0.000 [J/(mol K)]       0.00000000 [mEh/K]

  Constant volume heat capacity, Cv
    Electronic Cv           0.000 [cal/(mol K)]        0.000 [J/(mol K)]       0.00000000 [mEh/K]
    Translational Cv        2.981 [cal/(mol K)]       12.472 [J/(mol K)]       0.00475022 [mEh/K]
    Rotational Cv           2.981 [cal/(mol K)]       12.472 [J/(mol K)]       0.00475022 [mEh/K]
    Vibrational Cv          0.091 [cal/(mol K)]        0.382 [J/(mol K)]       0.00014542 [mEh/K]
  Total Cv                  6.053 [cal/(mol K)]       25.325 [J/(mol K)]       0.00964585 [mEh/K]
  Correction Cv             0.000 [cal/(mol K)]        0.000 [J/(mol K)]       0.00000000 [mEh/K]

  Constant pressure heat capacity, Cp
    Electronic Cp           0.000 [cal/(mol K)]        0.000 [J/(mol K)]       0.00000000 [mEh/K]
    Translational Cp        4.968 [cal/(mol K)]       20.786 [J/(mol K)]       0.00791703 [mEh/K]
    Rotational Cp           2.981 [cal/(mol K)]       12.472 [J/(mol K)]       0.00475022 [mEh/K]
    Vibrational Cp          0.091 [cal/(mol K)]        0.382 [J/(mol K)]       0.00014542 [mEh/K]
  Total Cp                  8.040 [cal/(mol K)]       33.640 [J/(mol K)]       0.01281266 [mEh/K]
  Correction Cp             0.000 [cal/(mol K)]        0.000 [J/(mol K)]       0.00000000 [mEh/K]

  ==> Thermochemistry Energy Analysis <==

  Raw electronic energy, E0
  Total E0, Electronic energy at well bottom at 0 [K]                 -130.49774047 [Eh]

  Zero-point energy, ZPE_vib = Sum_i nu_i / 2
    Electronic ZPE          0.000 [kcal/mol]        0.000 [kJ/mol]       0.00000000 [Eh]
    Translational ZPE       0.000 [kcal/mol]        0.000 [kJ/mol]       0.00000000 [Eh]
    Rotational ZPE          0.000 [kcal/mol]        0.000 [kJ/mol]       0.00000000 [Eh]
    Vibrational ZPE         8.923 [kcal/mol]       37.334 [kJ/mol]       0.01421970 [Eh]        3120.863 [cm^-1]
  Correction ZPE            8.923 [kcal/mol]       37.334 [kJ/mol]       0.01421970 [Eh]        3120.863 [cm^-1]
  Total ZPE, Electronic energy at 0 [K]                               -130.48352077 [Eh]

  Thermal Energy, E (includes ZPE)
    Electronic E            0.000 [kcal/mol]        0.000 [kJ/mol]       0.00000000 [Eh]
    Translational E         0.889 [kcal/mol]        3.718 [kJ/mol]       0.00141628 [Eh]
    Rotational E            0.889 [kcal/mol]        3.718 [kJ/mol]       0.00141628 [Eh]
    Vibrational E           8.926 [kcal/mol]       37.348 [kJ/mol]       0.01422520 [Eh]
  Correction E             10.704 [kcal/mol]       44.785 [kJ/mol]       0.01705776 [Eh]
  Total E, Electronic energy at  298.15 [K]                           -130.48068271 [Eh]

  Enthalpy, H_trans = E_trans + k_B * T
    Electronic H            0.000 [kcal/mol]        0.000 [kJ/mol]       0.00000000 [Eh]
    Translational H         1.481 [kcal/mol]        6.197 [kJ/mol]       0.00236046 [Eh]
    Rotational H            0.889 [kcal/mol]        3.718 [kJ/mol]       0.00141628 [Eh]
    Vibrational H           8.926 [kcal/mol]       37.348 [kJ/mol]       0.01422520 [Eh]
  Correction H             11.296 [kcal/mol]       47.264 [kJ/mol]       0.01800194 [Eh]
  Total H, Enthalpy at  298.15 [K]                                    -130.47973853 [Eh]

  Gibbs free energy, G = H - T * S
    Electronic G            0.000 [kcal/mol]        0.000 [kJ/mol]       0.00000000 [Eh]
    Translational G        -9.320 [kcal/mol]      -38.995 [kJ/mol]      -0.01485238 [Eh]
    Rotational G           -4.013 [kcal/mol]      -16.789 [kJ/mol]      -0.00639475 [Eh]
    Vibrational G           8.923 [kcal/mol]       37.332 [kJ/mol]       0.01421900 [Eh]
  Correction G             -4.410 [kcal/mol]      -18.452 [kJ/mol]      -0.00702813 [Eh]
  Total G, Free enthalpy at  298.15 [K]                               -130.50476861 [Eh]

*** Psi4 exiting successfully. Buy a developer a beer!
