                               Psi4 1.3.2 release

  ==> Input File <==

--------------------------------------------------------------------------
memory 144 GB

molecule {
0 1
O 0.0000000000 0.0000000000 0.0000000000
H 0.0000000000 0.0000000000 0.9638997500
Cl 1.6530447720 0.0000000000 -0.3711121967
}

set dynamic_level 1
set basis cc-pV(Q+d)Z

optimize("wB97M-V")
frequencies("wB97M-V")
--------------------------------------------------------------------------

    Molecular point group: cs
  Charge       = 0
  Multiplicity = 1
  Basis Set: CC-PV(Q+D)Z
    Blend: CC-PV(Q+D)Z
  Basis Set: (CC-PV(Q+D)Z AUX)
    Blend: CC-PVQZ-JKFIT
  @DF-RKS Final Energy:  -535.97648520094322
    Total Energy =                       -535.9764852009432161
    Molecular point group: cs
  Basis Set: CC-PV(Q+D)Z
    Blend: CC-PV(Q+D)Z
  Basis Set: (CC-PV(Q+D)Z AUX)
    Blend: CC-PVQZ-JKFIT
  @DF-RKS Final Energy:  -535.97649534831305
    Total Energy =                       -535.9764953483129375
  Basis Set: CC-PV(Q+D)Z
    Blend: CC-PV(Q+D)Z
  Basis Set: (CC-PV(Q+D)Z AUX)
    Blend: CC-PVQZ-JKFIT
  @DF-RKS Final Energy:  -535.97647446076166
    Total Energy =                       -535.9764744607616649
  Basis Set: CC-PV(Q+D)Z
    Blend: CC-PV(Q+D)Z
  Basis Set: (CC-PV(Q+D)Z AUX)
    Blend: CC-PVQZ-JKFIT
  @DF-RKS Final Energy:  -535.97647796019146
    Total Energy =                       -535.9764779601914597
  @DF-RKS Final Energy:  -535.97648310308057
    Total Energy =                       -535.9764831030805681
  @DF-RKS Final Energy:  -535.97647980676629
    Total Energy =                       -535.9764798067664060
  @DF-RKS Final Energy:  -535.97648467033127
    Total Energy =                       -535.9764846703312742
  @DF-RKS Final Energy:  -535.97656349356305
    Total Energy =                       -535.9765634935630487
  @DF-RKS Final Energy:  -535.97656707098497
    Total Energy =                       -535.9765670709848564
  @DF-RKS Final Energy:  -535.97655930125325
    Total Energy =                       -535.9765593012532463
  @DF-RKS Final Energy:  -535.97655761239275
    Total Energy =                       -535.9765576123926394
  @DF-RKS Final Energy:  -535.97656012652897
    Total Energy =                       -535.9765601265290798
  @DF-RKS Final Energy:  -535.97656003055033
    Total Energy =                       -535.9765600305503312
  @DF-RKS Final Energy:  -535.97656093444880
    Total Energy =                       -535.9765609344489121
  @DF-RKS Final Energy:  -535.97657574823995
    Total Energy =                       -535.9765757482399522
  @DF-RKS Final Energy:  -535.97657531429797
    Total Energy =                       -535.9765753142980884
  @DF-RKS Final Energy:  -535.97657555367357
    Total Energy =                       -535.9765755536736833
  @DF-RKS Final Energy:  -535.97657104659368
    Total Energy =                       -535.9765710465935626
  @DF-RKS Final Energy:  -535.97657124332807
    Total Energy =                       -535.9765712433280669
  @DF-RKS Final Energy:  -535.97657264440591
    Total Energy =                       -535.9765726444059055
  **** Optimization is complete! (in 3 steps) ****
    Final optimized geometry and variables:
  @DF-RKS Final Energy:  -535.97657574824348
    Total Energy =                       -535.9765757482434765
  @DF-RKS Final Energy:  -535.97657531413552
    Total Energy =                       -535.9765753141354026
  @DF-RKS Final Energy:  -535.97657555368198
    Total Energy =                       -535.9765755536819825
  @DF-RKS Final Energy:  -535.97657104667769
    Total Energy =                       -535.9765710466776909
  @DF-RKS Final Energy:  -535.97657124337275
    Total Energy =                       -535.9765712433726321
  @DF-RKS Final Energy:  -535.97657264443217
    Total Energy =                       -535.9765726444322809
  @DF-RKS Final Energy:  -535.97657277174699
    Total Energy =                       -535.9765727717471009
  @DF-RKS Final Energy:  -535.97657574824348
    Total Energy =                       -535.9765757482433628
  @DF-RKS Final Energy:  -535.97657531413597
    Total Energy =                       -535.9765753141359710
  @DF-RKS Final Energy:  -535.97657555368221
    Total Energy =                       -535.9765755536820961
  @DF-RKS Final Energy:  -535.97657104667769
    Total Energy =                       -535.9765710466776909
  @DF-RKS Final Energy:  -535.97657124337320
    Total Energy =                       -535.9765712433730869
  @DF-RKS Final Energy:  -535.97657264443251
    Total Energy =                       -535.9765726444325082
  @DF-RKS Final Energy:  -535.97657277174653
    Total Energy =                       -535.9765727717464188
  @DF-RKS Final Energy:  -535.97657104476048
    Total Energy =                       -535.9765710447604761
  @DF-RKS Final Energy:  -535.97657061644861
    Total Energy =                       -535.9765706164486119
  Basis Set: CC-PV(Q+D)Z
    Blend: CC-PV(Q+D)Z
  Basis Set: (CC-PV(Q+D)Z AUX)
    Blend: CC-PVQZ-JKFIT
  @DF-RKS Final Energy:  -535.97657281145291
    Total Energy =                       -535.9765728114527974
  Basis Set: CC-PV(Q+D)Z
    Blend: CC-PV(Q+D)Z
  Basis Set: (CC-PV(Q+D)Z AUX)
    Blend: CC-PVQZ-JKFIT
  @DF-RKS Final Energy:  -535.97657243777883
    Total Energy =                       -535.9765724377788274
  Multiplicity = 1
  Basis Set: CC-PV(Q+D)Z
    Blend: CC-PV(Q+D)Z
  Basis Set: (CC-PV(Q+D)Z AUX)
    Blend: CC-PVQZ-JKFIT
  @DF-RKS Final Energy:  -535.97657420872292
    Total Energy =                       -535.9765742087230365
    Molecular point group: cs

    Geometry (in Angstrom), charge = 0, multiplicity = 1:

       Center              X                  Y                   Z               Mass
    ------------   -----------------  -----------------  -----------------  -----------------
         O            1.102265282993     0.232124602982     0.000000000000    15.994914619570
         H            1.111895593503     1.196070149678     0.000000000000     1.007825032230
         CL          -0.536226780800    -0.140646382873     0.000000000000    34.968852682000

  Charge       = 0
  Multiplicity = 1
  Basis Set: CC-PV(Q+D)Z
    Blend: CC-PV(Q+D)Z
  Basis Set: (CC-PV(Q+D)Z AUX)
    Blend: CC-PVQZ-JKFIT

    Orbital Energies [Eh]
    ---------------------

    Doubly Occupied:

       1Ap  -101.936386     2Ap   -19.401862     3Ap    -9.690145
       4Ap    -7.399019     5Ap    -7.385645     1App   -7.385311
       6Ap    -1.204498     7Ap    -0.921903     8Ap    -0.643945
       9Ap    -0.551977     2App   -0.526781    10Ap    -0.419725
       3App   -0.386832

  @DF-RKS Final Energy:  -535.97657384875799

   => Energetics <=

    Nuclear Repulsion Energy =             51.4597751106549666
    One-Electron Energy =                -841.4843914838565979
    Two-Electron Energy =                 282.2175324320305094
    DFT Exchange-Correlation Energy =     -28.2781722005352520
    Empirical Dispersion Energy =           0.0000000000000000
    VV10 Nonlocal Energy =                  0.1086822929484923
    Total Energy =                       -535.9765738487578801

  Dipole Moment: [D]
     X:    -0.0161      Y:     1.5556      Z:     0.0000     Total:     1.5557

  Vibration                       7                   8                   9
  Freq [cm^-1]                 790.3994           1281.1531           3815.2663
  Irrep                           Ap                  Ap                  Ap
  Reduced mass [u]             17.5369              1.0732              1.0678
  Force const [mDyne/A]         6.4550              1.0378              9.1580

  ==> Thermochemistry Components <==

  Entropy, S
    Electronic S            0.000 [cal/(mol K)]        0.000 [J/(mol K)]       0.00000000 [mEh/K] (multiplicity = 1)
    Translational S        37.767 [cal/(mol K)]      158.018 [J/(mol K)]       0.06018576 [mEh/K] (mol. weight = 51.9716 [u], P = 101325.00 [Pa])
    Rotational S           18.363 [cal/(mol K)]       76.831 [J/(mol K)]       0.02926326 [mEh/K] (symmetry no. = 1)
    Vibrational S           0.245 [cal/(mol K)]        1.024 [J/(mol K)]       0.00039010 [mEh/K]
  Total S                  56.375 [cal/(mol K)]      235.873 [J/(mol K)]       0.08983913 [mEh/K]
  Correction S              0.000 [cal/(mol K)]        0.000 [J/(mol K)]       0.00000000 [mEh/K]

  Constant volume heat capacity, Cv
    Electronic Cv           0.000 [cal/(mol K)]        0.000 [J/(mol K)]       0.00000000 [mEh/K]
    Translational Cv        2.981 [cal/(mol K)]       12.472 [J/(mol K)]       0.00475022 [mEh/K]
    Rotational Cv           2.981 [cal/(mol K)]       12.472 [J/(mol K)]       0.00475022 [mEh/K]
    Vibrational Cv          0.824 [cal/(mol K)]        3.449 [J/(mol K)]       0.00131350 [mEh/K]
  Total Cv                  6.786 [cal/(mol K)]       28.392 [J/(mol K)]       0.01081393 [mEh/K]
  Correction Cv             0.000 [cal/(mol K)]        0.000 [J/(mol K)]       0.00000000 [mEh/K]

  Constant pressure heat capacity, Cp
    Electronic Cp           0.000 [cal/(mol K)]        0.000 [J/(mol K)]       0.00000000 [mEh/K]
    Translational Cp        4.968 [cal/(mol K)]       20.786 [J/(mol K)]       0.00791703 [mEh/K]
    Rotational Cp           2.981 [cal/(mol K)]       12.472 [J/(mol K)]       0.00475022 [mEh/K]
    Vibrational Cp          0.824 [cal/(mol K)]        3.449 [J/(mol K)]       0.00131350 [mEh/K]
  Total Cp                  8.773 [cal/(mol K)]       36.706 [J/(mol K)]       0.01398075 [mEh/K]
  Correction Cp             0.000 [cal/(mol K)]        0.000 [J/(mol K)]       0.00000000 [mEh/K]

  ==> Thermochemistry Energy Analysis <==

  Raw electronic energy, E0
  Total E0, Electronic energy at well bottom at 0 [K]                 -535.97657575 [Eh]

  Zero-point energy, ZPE_vib = Sum_i nu_i / 2
    Electronic ZPE          0.000 [kcal/mol]        0.000 [kJ/mol]       0.00000000 [Eh]
    Translational ZPE       0.000 [kcal/mol]        0.000 [kJ/mol]       0.00000000 [Eh]
    Rotational ZPE          0.000 [kcal/mol]        0.000 [kJ/mol]       0.00000000 [Eh]
    Vibrational ZPE         8.416 [kcal/mol]       35.211 [kJ/mol]       0.01341116 [Eh]        2943.409 [cm^-1]
  Correction ZPE            8.416 [kcal/mol]       35.211 [kJ/mol]       0.01341116 [Eh]        2943.409 [cm^-1]
  Total ZPE, Electronic energy at 0 [K]                               -535.96316459 [Eh]

  Thermal Energy, E (includes ZPE)
    Electronic E            0.000 [kcal/mol]        0.000 [kJ/mol]       0.00000000 [Eh]
    Translational E         0.889 [kcal/mol]        3.718 [kJ/mol]       0.00141628 [Eh]
    Rotational E            0.889 [kcal/mol]        3.718 [kJ/mol]       0.00141628 [Eh]
    Vibrational E           8.474 [kcal/mol]       35.456 [kJ/mol]       0.01350446 [Eh]
  Correction E             10.252 [kcal/mol]       42.893 [kJ/mol]       0.01633701 [Eh]
  Total E, Electronic energy at  298.15 [K]                           -535.96023873 [Eh]

  Enthalpy, H_trans = E_trans + k_B * T
    Electronic H            0.000 [kcal/mol]        0.000 [kJ/mol]       0.00000000 [Eh]
    Translational H         1.481 [kcal/mol]        6.197 [kJ/mol]       0.00236046 [Eh]
    Rotational H            0.889 [kcal/mol]        3.718 [kJ/mol]       0.00141628 [Eh]
    Vibrational H           8.474 [kcal/mol]       35.456 [kJ/mol]       0.01350446 [Eh]
  Correction H             10.844 [kcal/mol]       45.372 [kJ/mol]       0.01728120 [Eh]
  Total H, Enthalpy at  298.15 [K]                                    -535.95929455 [Eh]

  Gibbs free energy, G = H - T * S
    Electronic G            0.000 [kcal/mol]        0.000 [kJ/mol]       0.00000000 [Eh]
    Translational G        -9.779 [kcal/mol]      -40.916 [kJ/mol]      -0.01558392 [Eh]
    Rotational G           -4.586 [kcal/mol]      -19.189 [kJ/mol]      -0.00730857 [Eh]
    Vibrational G           8.401 [kcal/mol]       35.151 [kJ/mol]       0.01338815 [Eh]
  Correction G             -5.964 [kcal/mol]      -24.954 [kJ/mol]      -0.00950434 [Eh]
  Total G, Free enthalpy at  298.15 [K]                               -535.98608009 [Eh]

*** Psi4 exiting successfully. Buy a developer a beer!
