                               Psi4 1.3.2 release

  ==> Input File <==

--------------------------------------------------------------------------
memory 144 GB

molecule {
0 1
N 0.0000000000 0.0000000000 0.0000000000
N 0.0000000000 0.0000000000 1.1003000000
}

set dynamic_level 1
set basis cc-pV(Q+d)Z

optimize("wB97M-V")
frequencies("wB97M-V")
--------------------------------------------------------------------------

    Molecular point group: d2h
  Charge       = 0
  Multiplicity = 1
  Basis Set: CC-PV(Q+D)Z
    Blend: CC-PV(Q+D)Z
  Basis Set: (CC-PV(Q+D)Z AUX)
    Blend: CC-PVQZ-JKFIT
  @DF-RKS Final Energy:  -109.55489433879214
    Total Energy =                       -109.5548943387921383
    Molecular point group: d2h
  Basis Set: CC-PV(Q+D)Z
    Blend: CC-PV(Q+D)Z
  Basis Set: (CC-PV(Q+D)Z AUX)
    Blend: CC-PVQZ-JKFIT
  @DF-RKS Final Energy:  -109.55482750698401
    Total Energy =                       -109.5548275069840116
  Basis Set: CC-PV(Q+D)Z
    Blend: CC-PV(Q+D)Z
  Basis Set: (CC-PV(Q+D)Z AUX)
    Blend: CC-PVQZ-JKFIT
  @DF-RKS Final Energy:  -109.55495577467438
    Total Energy =                       -109.5549557746743830
  Basis Set: CC-PV(Q+D)Z
    Blend: CC-PV(Q+D)Z
  Basis Set: (CC-PV(Q+D)Z AUX)
    Blend: CC-PVQZ-JKFIT
  @DF-RKS Final Energy:  -109.55526086639449
    Total Energy =                       -109.5552608663944909
  @DF-RKS Final Energy:  -109.55525076885579
    Total Energy =                       -109.5552507688557853
  @DF-RKS Final Energy:  -109.55526516715157
    Total Energy =                       -109.5552651671515889
  @DF-RKS Final Energy:  -109.55526532475835
    Total Energy =                       -109.5552653247583521
  @DF-RKS Final Energy:  -109.55526269512953
    Total Energy =                       -109.5552626951295281
  @DF-RKS Final Energy:  -109.55526210485765
    Total Energy =                       -109.5552621048576469
  **** Optimization is complete! (in 3 steps) ****
    Final optimized geometry and variables:
  @DF-RKS Final Energy:  -109.55526532475821
    Total Energy =                       -109.5552653247582100
  @DF-RKS Final Energy:  -109.55526269512953
    Total Energy =                       -109.5552626951295281
  Basis Set: CC-PV(Q+D)Z
    Blend: CC-PV(Q+D)Z
  Basis Set: (CC-PV(Q+D)Z AUX)
    Blend: CC-PVQZ-JKFIT
  @DF-RKS Final Energy:  -109.55526210485760
    Total Energy =                       -109.5552621048576043
  Basis Set: CC-PV(Q+D)Z
    Blend: CC-PV(Q+D)Z
  Basis Set: (CC-PV(Q+D)Z AUX)
    Blend: CC-PVQZ-JKFIT
  @DF-RKS Final Energy:  -109.55526532475821
    Total Energy =                       -109.5552653247582100
  Multiplicity = 1
  Basis Set: CC-PV(Q+D)Z
    Blend: CC-PV(Q+D)Z
  Basis Set: (CC-PV(Q+D)Z AUX)
    Blend: CC-PVQZ-JKFIT
  @DF-RKS Final Energy:  -109.55526269512944
    Total Energy =                       -109.5552626951294428
    Molecular point group: d2h

    Geometry (in Angstrom), charge = 0, multiplicity = 1:

       Center              X                  Y                   Z               Mass
    ------------   -----------------  -----------------  -----------------  -----------------
         N            0.000000000000     0.000000000000    -0.543918208021    14.003074004430
         N            0.000000000000     0.000000000000     0.543918208021    14.003074004430

  Charge       = 0
  Multiplicity = 1
  Basis Set: CC-PV(Q+D)Z
    Blend: CC-PV(Q+D)Z
  Basis Set: (CC-PV(Q+D)Z AUX)
    Blend: CC-PVQZ-JKFIT

    Orbital Energies [Eh]
    ---------------------

    Doubly Occupied:

       1Ag   -14.602399     1B1u  -14.600533     2Ag    -1.257188
       2B1u   -0.666360     1B2u   -0.574784     1B3u   -0.574784
       3Ag    -0.542550

  @DF-RKS Final Energy:  -109.55526210485763

   => Energetics <=

    Nuclear Repulsion Energy =             23.8360133384457420
    One-Electron Energy =                -194.9281324196853404
    Two-Electron Energy =                  71.3805708174920852
    DFT Exchange-Correlation Energy =      -9.9026510477777894
    Empirical Dispersion Energy =           0.0000000000000000
    VV10 Nonlocal Energy =                  0.0589372066676626
    Total Energy =                       -109.5552621048576327

  Dipole Moment: [D]
     X:     0.0000      Y:     0.0000      Z:     0.0000     Total:     0.0000

  Vibration                       6
  Freq [cm^-1]                2486.5359
  Irrep                           Ag
  Reduced mass [u]             14.0031
  Force const [mDyne/A]        51.0109

  ==> Thermochemistry Components <==

  Entropy, S
    Electronic S            0.000 [cal/(mol K)]        0.000 [J/(mol K)]       0.00000000 [mEh/K] (multiplicity = 1)
    Translational S        35.924 [cal/(mol K)]      150.307 [J/(mol K)]       0.05724883 [mEh/K] (mol. weight = 28.0061 [u], P = 101325.00 [Pa])
    Rotational S            9.801 [cal/(mol K)]       41.009 [J/(mol K)]       0.01561935 [mEh/K] (symmetry no. = 2)
    Vibrational S           0.000 [cal/(mol K)]        0.001 [J/(mol K)]       0.00000025 [mEh/K]
  Total S                  45.726 [cal/(mol K)]      191.316 [J/(mol K)]       0.07286843 [mEh/K]
  Correction S              0.000 [cal/(mol K)]        0.000 [J/(mol K)]       0.00000000 [mEh/K]

  Constant volume heat capacity, Cv
    Electronic Cv           0.000 [cal/(mol K)]        0.000 [J/(mol K)]       0.00000000 [mEh/K]
    Translational Cv        2.981 [cal/(mol K)]       12.472 [J/(mol K)]       0.00475022 [mEh/K]
    Rotational Cv           1.987 [cal/(mol K)]        8.314 [J/(mol K)]       0.00316681 [mEh/K]
    Vibrational Cv          0.002 [cal/(mol K)]        0.007 [J/(mol K)]       0.00000280 [mEh/K]
  Total Cv                  4.970 [cal/(mol K)]       20.794 [J/(mol K)]       0.00791983 [mEh/K]
  Correction Cv             0.000 [cal/(mol K)]        0.000 [J/(mol K)]       0.00000000 [mEh/K]

  Constant pressure heat capacity, Cp
    Electronic Cp           0.000 [cal/(mol K)]        0.000 [J/(mol K)]       0.00000000 [mEh/K]
    Translational Cp        4.968 [cal/(mol K)]       20.786 [J/(mol K)]       0.00791703 [mEh/K]
    Rotational Cp           1.987 [cal/(mol K)]        8.314 [J/(mol K)]       0.00316681 [mEh/K]
    Vibrational Cp          0.002 [cal/(mol K)]        0.007 [J/(mol K)]       0.00000280 [mEh/K]
  Total Cp                  6.957 [cal/(mol K)]       29.108 [J/(mol K)]       0.01108664 [mEh/K]
  Correction Cp             0.000 [cal/(mol K)]        0.000 [J/(mol K)]       0.00000000 [mEh/K]

  ==> Thermochemistry Energy Analysis <==

  Raw electronic energy, E0
  Total E0, Electronic energy at well bottom at 0 [K]                 -109.55526532 [Eh]

  Zero-point energy, ZPE_vib = Sum_i nu_i / 2
    Electronic ZPE          0.000 [kcal/mol]        0.000 [kJ/mol]       0.00000000 [Eh]
    Translational ZPE       0.000 [kcal/mol]        0.000 [kJ/mol]       0.00000000 [Eh]
    Rotational ZPE          0.000 [kcal/mol]        0.000 [kJ/mol]       0.00000000 [Eh]
    Vibrational ZPE         3.555 [kcal/mol]       14.873 [kJ/mol]       0.00566475 [Eh]        1243.268 [cm^-1]
  Correction ZPE            3.555 [kcal/mol]       14.873 [kJ/mol]       0.00566475 [Eh]        1243.268 [cm^-1]
  Total ZPE, Electronic energy at 0 [K]                               -109.54960058 [Eh]

  Thermal Energy, E (includes ZPE)
    Electronic E            0.000 [kcal/mol]        0.000 [kJ/mol]       0.00000000 [Eh]
    Translational E         0.889 [kcal/mol]        3.718 [kJ/mol]       0.00141628 [Eh]
    Rotational E            0.592 [kcal/mol]        2.479 [kJ/mol]       0.00094418 [Eh]
    Vibrational E           3.555 [kcal/mol]       14.873 [kJ/mol]       0.00566482 [Eh]
  Correction E              5.036 [kcal/mol]       21.070 [kJ/mol]       0.00802528 [Eh]
  Total E, Electronic energy at  298.15 [K]                           -109.54724005 [Eh]

  Enthalpy, H_trans = E_trans + k_B * T
    Electronic H            0.000 [kcal/mol]        0.000 [kJ/mol]       0.00000000 [Eh]
    Translational H         1.481 [kcal/mol]        6.197 [kJ/mol]       0.00236046 [Eh]
    Rotational H            0.592 [kcal/mol]        2.479 [kJ/mol]       0.00094418 [Eh]
    Vibrational H           3.555 [kcal/mol]       14.873 [kJ/mol]       0.00566482 [Eh]
  Correction H              5.628 [kcal/mol]       23.549 [kJ/mol]       0.00896946 [Eh]
  Total H, Enthalpy at  298.15 [K]                                    -109.54629586 [Eh]

  Gibbs free energy, G = H - T * S
    Electronic G            0.000 [kcal/mol]        0.000 [kJ/mol]       0.00000000 [Eh]
    Translational G        -9.230 [kcal/mol]      -38.617 [kJ/mol]      -0.01470828 [Eh]
    Rotational G           -2.330 [kcal/mol]       -9.748 [kJ/mol]      -0.00371272 [Eh]
    Vibrational G           3.555 [kcal/mol]       14.873 [kJ/mol]       0.00566474 [Eh]
  Correction G             -8.005 [kcal/mol]      -33.492 [kJ/mol]      -0.01275626 [Eh]
  Total G, Free enthalpy at  298.15 [K]                               -109.56802159 [Eh]

*** Psi4 exiting successfully. Buy a developer a beer!
