                               Psi4 1.3.2 release

  ==> Input File <==

--------------------------------------------------------------------------
memory 144 GB

molecule {
0 1
N 0.0000000000 0.0000000000 0.0000000000
H 0.0000000000 0.0000000000 1.0124000000
H 0.9722998620 0.0000000000 -0.2821112163
H -0.3756003142 0.8968229622 -0.2821112163
}

set dynamic_level 1
set basis cc-pV(Q+d)Z

optimize("wB97M-V")
frequencies("wB97M-V")
--------------------------------------------------------------------------

    Molecular point group: cs
  Charge       = 0
  Multiplicity = 1
  Basis Set: CC-PV(Q+D)Z
    Blend: CC-PV(Q+D)Z
  Basis Set: (CC-PV(Q+D)Z AUX)
    Blend: CC-PVQZ-JKFIT
  @DF-RKS Final Energy:   -56.55389607141542
    Total Energy =                        -56.5538960714154086
    Molecular point group: cs
  Basis Set: CC-PV(Q+D)Z
    Blend: CC-PV(Q+D)Z
  Basis Set: (CC-PV(Q+D)Z AUX)
    Blend: CC-PVQZ-JKFIT
  @DF-RKS Final Energy:   -56.55388926993162
    Total Energy =                        -56.5538892699316307
  Basis Set: CC-PV(Q+D)Z
    Blend: CC-PV(Q+D)Z
  Basis Set: (CC-PV(Q+D)Z AUX)
    Blend: CC-PVQZ-JKFIT
  @DF-RKS Final Energy:   -56.55389744194421
    Total Energy =                        -56.5538974419442084
  Basis Set: CC-PV(Q+D)Z
    Blend: CC-PV(Q+D)Z
  Basis Set: (CC-PV(Q+D)Z AUX)
    Blend: CC-PVQZ-JKFIT
  @DF-RKS Final Energy:   -56.55388921869849
    Total Energy =                        -56.5538892186984938
  @DF-RKS Final Energy:   -56.55389783949577
    Total Energy =                        -56.5538978394957681
  @DF-RKS Final Energy:   -56.55389216560145
    Total Energy =                        -56.5538921656014395
  @DF-RKS Final Energy:   -56.55389147693823
    Total Energy =                        -56.5538914769382259
  @DF-RKS Final Energy:   -56.55389215995363
    Total Energy =                        -56.5538921599536195
  @DF-RKS Final Energy:   -56.55389148248685
    Total Energy =                        -56.5538914824868471
  @DF-RKS Final Energy:   -56.55390792439157
    Total Energy =                        -56.5539079243915737
  @DF-RKS Final Energy:   -56.55390329067882
    Total Energy =                        -56.5539032906788179
  @DF-RKS Final Energy:   -56.55390713933297
    Total Energy =                        -56.5539071393329777
  @DF-RKS Final Energy:   -56.55390335566965
    Total Energy =                        -56.5539033556696538
  @DF-RKS Final Energy:   -56.55390744414923
    Total Energy =                        -56.5539074441492389
  @DF-RKS Final Energy:   -56.55390526425781
    Total Energy =                        -56.5539052642578071
  @DF-RKS Final Energy:   -56.55390205432295
    Total Energy =                        -56.5539020543229540
  @DF-RKS Final Energy:   -56.55390526471809
    Total Energy =                        -56.5539052647180966
  @DF-RKS Final Energy:   -56.55390205373520
    Total Energy =                        -56.5539020537352002
  @DF-RKS Final Energy:   -56.55391002255627
    Total Energy =                        -56.5539100225562663
  @DF-RKS Final Energy:   -56.55390732633177
    Total Energy =                        -56.5539073263317746
  **** Optimization is complete! (in 3 steps) ****
    Final optimized geometry and variables:
  @DF-RKS Final Energy:   -56.55390566993233
    Total Energy =                        -56.5539056699323339
  @DF-RKS Final Energy:   -56.55390580824052
    Total Energy =                        -56.5539058082405219
  @DF-RKS Final Energy:   -56.55390566983672
    Total Energy =                        -56.5539056698367091
  @DF-RKS Final Energy:   -56.55390580789505
    Total Energy =                        -56.5539058078950418
  @DF-RKS Final Energy:   -56.55390779017786
    Total Energy =                        -56.5539077901778597
  @DF-RKS Final Energy:   -56.55390782100358
    Total Energy =                        -56.5539078210035839
  @DF-RKS Final Energy:   -56.55390222627745
    Total Energy =                        -56.5539022262774509
  @DF-RKS Final Energy:   -56.55390207286943
    Total Energy =                        -56.5539020728694339
  @DF-RKS Final Energy:   -56.55390729955615
    Total Energy =                        -56.5539072995561511
  @DF-RKS Final Energy:   -56.55390720691066
    Total Energy =                        -56.5539072069106652
  @DF-RKS Final Energy:   -56.55390715194660
    Total Energy =                        -56.5539071519465821
  @DF-RKS Final Energy:   -56.55390706545931
    Total Energy =                        -56.5539070654593061
  @DF-RKS Final Energy:   -56.55390265546826
    Total Energy =                        -56.5539026554682636
  @DF-RKS Final Energy:   -56.55390254411601
    Total Energy =                        -56.5539025441160064
  @DF-RKS Final Energy:   -56.55389977127705
    Total Energy =                        -56.5538997712770453
  @DF-RKS Final Energy:   -56.55389946300421
    Total Energy =                        -56.5538994630042140
  Basis Set: CC-PV(Q+D)Z
    Blend: CC-PV(Q+D)Z
  Basis Set: (CC-PV(Q+D)Z AUX)
    Blend: CC-PVQZ-JKFIT
  @DF-RKS Final Energy:   -56.55390589690525
    Total Energy =                        -56.5539058969052491
  Basis Set: CC-PV(Q+D)Z
    Blend: CC-PV(Q+D)Z
  Basis Set: (CC-PV(Q+D)Z AUX)
    Blend: CC-PVQZ-JKFIT
  @DF-RKS Final Energy:   -56.55390767481319
    Total Energy =                        -56.5539076748131819
  Multiplicity = 1
  Basis Set: CC-PV(Q+D)Z
    Blend: CC-PV(Q+D)Z
  Basis Set: (CC-PV(Q+D)Z AUX)
    Blend: CC-PVQZ-JKFIT
  @DF-RKS Final Energy:   -56.55390835571338
    Total Energy =                        -56.5539083557133893
    Molecular point group: c1

    Geometry (in Angstrom), charge = 0, multiplicity = 1:

       Center              X                  Y                   Z               Mass
    ------------   -----------------  -----------------  -----------------  -----------------
         N           -0.043246254302    -0.051972976018    -0.000264225148    14.003074004430
         H            0.559956870818    -0.057454641234     0.811939013279     1.007825032230
         H            0.560880962507    -0.060464583503    -0.811013182005     1.007825032230
         H           -0.519959228369     0.840049957888     0.002745405483     1.007825032230

  Charge       = 0
  Multiplicity = 1
  Basis Set: CC-PV(Q+D)Z
    Blend: CC-PV(Q+D)Z
  Basis Set: (CC-PV(Q+D)Z AUX)
    Blend: CC-PVQZ-JKFIT

    Orbital Energies [Eh]
    ---------------------

    Doubly Occupied:

       1A    -14.474464     2A     -0.972534     3A     -0.563657
       4A     -0.562496     5A     -0.371610

  @DF-RKS Final Energy:   -56.55390835579142

   => Energetics <=

    Nuclear Repulsion Energy =             11.9654796612263770
    One-Electron Energy =                 -99.7049617484241395
    Two-Electron Energy =                  36.7089719173911533
    DFT Exchange-Correlation Energy =      -5.5652360267873879
    Empirical Dispersion Energy =           0.0000000000000000
    VV10 Nonlocal Energy =                  0.0418378408025751
    Total Energy =                        -56.5539083557914211

  Dipole Moment: [D]
     X:     0.9977      Y:     1.1990      Z:     0.0025     Total:     1.5598

  Vibration                       7                   8                   9
  Freq [cm^-1]                1048.7971           1193.8893           1664.5715
  Irrep                           Ap                 App                  Ap
  Reduced mass [u]              1.1808              1.0524              1.0661
  Force const [mDyne/A]         0.7653              0.8838              1.7404

  Vibration                       10                  11                  12
  Freq [cm^-1]                3497.8864           3501.3113           3614.2529
  Irrep                           Ap                 App                  Ap
  Reduced mass [u]              1.0266              1.1042              1.0895
  Force const [mDyne/A]         7.4007              7.9755              8.3849

  ==> Thermochemistry Components <==

  Entropy, S
    Electronic S            0.000 [cal/(mol K)]        0.000 [J/(mol K)]       0.00000000 [mEh/K] (multiplicity = 1)
    Translational S        34.441 [cal/(mol K)]      144.100 [J/(mol K)]       0.05488488 [mEh/K] (mol. weight = 17.0265 [u], P = 101325.00 [Pa])
    Rotational S           13.607 [cal/(mol K)]       56.933 [J/(mol K)]       0.02168445 [mEh/K] (symmetry no. = 1)
    Vibrational S           0.125 [cal/(mol K)]        0.523 [J/(mol K)]       0.00019925 [mEh/K]
  Total S                  48.173 [cal/(mol K)]      201.556 [J/(mol K)]       0.07676858 [mEh/K]
  Correction S              0.000 [cal/(mol K)]        0.000 [J/(mol K)]       0.00000000 [mEh/K]

  Constant volume heat capacity, Cv
    Electronic Cv           0.000 [cal/(mol K)]        0.000 [J/(mol K)]       0.00000000 [mEh/K]
    Translational Cv        2.981 [cal/(mol K)]       12.472 [J/(mol K)]       0.00475022 [mEh/K]
    Rotational Cv           2.981 [cal/(mol K)]       12.472 [J/(mol K)]       0.00475022 [mEh/K]
    Vibrational Cv          0.577 [cal/(mol K)]        2.416 [J/(mol K)]       0.00092010 [mEh/K]
  Total Cv                  6.539 [cal/(mol K)]       27.359 [J/(mol K)]       0.01042054 [mEh/K]
  Correction Cv             0.000 [cal/(mol K)]        0.000 [J/(mol K)]       0.00000000 [mEh/K]

  Constant pressure heat capacity, Cp
    Electronic Cp           0.000 [cal/(mol K)]        0.000 [J/(mol K)]       0.00000000 [mEh/K]
    Translational Cp        4.968 [cal/(mol K)]       20.786 [J/(mol K)]       0.00791703 [mEh/K]
    Rotational Cp           2.981 [cal/(mol K)]       12.472 [J/(mol K)]       0.00475022 [mEh/K]
    Vibrational Cp          0.577 [cal/(mol K)]        2.416 [J/(mol K)]       0.00092010 [mEh/K]
  Total Cp                  8.526 [cal/(mol K)]       35.674 [J/(mol K)]       0.01358735 [mEh/K]
  Correction Cp             0.000 [cal/(mol K)]        0.000 [J/(mol K)]       0.00000000 [mEh/K]

  ==> Thermochemistry Energy Analysis <==

  Raw electronic energy, E0
  Total E0, Electronic energy at well bottom at 0 [K]                  -56.55391002 [Eh]

  Zero-point energy, ZPE_vib = Sum_i nu_i / 2
    Electronic ZPE          0.000 [kcal/mol]        0.000 [kJ/mol]       0.00000000 [Eh]
    Translational ZPE       0.000 [kcal/mol]        0.000 [kJ/mol]       0.00000000 [Eh]
    Rotational ZPE          0.000 [kcal/mol]        0.000 [kJ/mol]       0.00000000 [Eh]
    Vibrational ZPE        20.758 [kcal/mol]       86.853 [kJ/mol]       0.03308061 [Eh]        7260.354 [cm^-1]
  Correction ZPE           20.758 [kcal/mol]       86.853 [kJ/mol]       0.03308061 [Eh]        7260.354 [cm^-1]
  Total ZPE, Electronic energy at 0 [K]                                -56.52082941 [Eh]

  Thermal Energy, E (includes ZPE)
    Electronic E            0.000 [kcal/mol]        0.000 [kJ/mol]       0.00000000 [Eh]
    Translational E         0.889 [kcal/mol]        3.718 [kJ/mol]       0.00141628 [Eh]
    Rotational E            0.889 [kcal/mol]        3.718 [kJ/mol]       0.00141628 [Eh]
    Vibrational E          20.790 [kcal/mol]       86.985 [kJ/mol]       0.03313073 [Eh]
  Correction E             22.567 [kcal/mol]       94.422 [kJ/mol]       0.03596328 [Eh]
  Total E, Electronic energy at  298.15 [K]                            -56.51794674 [Eh]

  Enthalpy, H_trans = E_trans + k_B * T
    Electronic H            0.000 [kcal/mol]        0.000 [kJ/mol]       0.00000000 [Eh]
    Translational H         1.481 [kcal/mol]        6.197 [kJ/mol]       0.00236046 [Eh]
    Rotational H            0.889 [kcal/mol]        3.718 [kJ/mol]       0.00141628 [Eh]
    Vibrational H          20.790 [kcal/mol]       86.985 [kJ/mol]       0.03313073 [Eh]
  Correction H             23.160 [kcal/mol]       96.901 [kJ/mol]       0.03690746 [Eh]
  Total H, Enthalpy at  298.15 [K]                                     -56.51700256 [Eh]

  Gibbs free energy, G = H - T * S
    Electronic G            0.000 [kcal/mol]        0.000 [kJ/mol]       0.00000000 [Eh]
    Translational G        -8.787 [kcal/mol]      -36.766 [kJ/mol]      -0.01400347 [Eh]
    Rotational G           -3.168 [kcal/mol]      -13.256 [kJ/mol]      -0.00504894 [Eh]
    Vibrational G          20.753 [kcal/mol]       86.829 [kJ/mol]       0.03307132 [Eh]
  Correction G              8.797 [kcal/mol]       36.807 [kJ/mol]       0.01401891 [Eh]
  Total G, Free enthalpy at  298.15 [K]                                -56.53989111 [Eh]

*** Psi4 exiting successfully. Buy a developer a beer!
