                               Psi4 1.3.2 release

  ==> Input File <==

--------------------------------------------------------------------------
memory 144 GB

molecule {
0 1
N 0.0000000000 0.0000000000 0.0000000000
N 0.0000000000 0.0000000000 1.1291000000
O 0.0000000000 -0.0000000000 2.3161000000
}

set dynamic_level 1
set basis cc-pV(Q+d)Z

optimize("wB97M-V")
frequencies("wB97M-V")
--------------------------------------------------------------------------

    Molecular point group: c2v
  Charge       = 0
  Multiplicity = 1
  Basis Set: CC-PV(Q+D)Z
    Blend: CC-PV(Q+D)Z
  Basis Set: (CC-PV(Q+D)Z AUX)
    Blend: CC-PVQZ-JKFIT
  @DF-RKS Final Energy:  -184.70082842048112
    Total Energy =                       -184.7008284204811162
    Molecular point group: c2v
  Basis Set: CC-PV(Q+D)Z
    Blend: CC-PV(Q+D)Z
  Basis Set: (CC-PV(Q+D)Z AUX)
    Blend: CC-PVQZ-JKFIT
  @DF-RKS Final Energy:  -184.70076930854950
    Total Energy =                       -184.7007693085494680
  Basis Set: CC-PV(Q+D)Z
    Blend: CC-PV(Q+D)Z
  Basis Set: (CC-PV(Q+D)Z AUX)
    Blend: CC-PVQZ-JKFIT
  @DF-RKS Final Energy:  -184.70088437613970
    Total Energy =                       -184.7008843761396975
  Basis Set: CC-PV(Q+D)Z
    Blend: CC-PV(Q+D)Z
  Basis Set: (CC-PV(Q+D)Z AUX)
    Blend: CC-PVQZ-JKFIT
  @DF-RKS Final Energy:  -184.70084332555265
    Total Energy =                       -184.7008433255526825
  @DF-RKS Final Energy:  -184.70081018063024
    Total Energy =                       -184.7008101806302136
  @DF-RKS Final Energy:  -184.70135891288547
    Total Energy =                       -184.7013589128854676
  @DF-RKS Final Energy:  -184.70134933927005
    Total Energy =                       -184.7013493392700525
  @DF-RKS Final Energy:  -184.70136502544389
    Total Energy =                       -184.7013650254438915
  @DF-RKS Final Energy:  -184.70136043354159
    Total Energy =                       -184.7013604335416233
  @DF-RKS Final Energy:  -184.70135384715630
    Total Energy =                       -184.7013538471562981
  @DF-RKS Final Energy:  -184.70136784548546
    Total Energy =                       -184.7013678454854642
  @DF-RKS Final Energy:  -184.70136638118220
    Total Energy =                       -184.7013663811821971
  @DF-RKS Final Energy:  -184.70136579516529
    Total Energy =                       -184.7013657951652874
  @DF-RKS Final Energy:  -184.70136627759675
    Total Energy =                       -184.7013662775967475
  @DF-RKS Final Energy:  -184.70136583861085
    Total Energy =                       -184.7013658386108830
  **** Optimization is complete! (in 3 steps) ****
    Final optimized geometry and variables:
  @DF-RKS Final Energy:  -184.70136784548350
    Total Energy =                       -184.7013678454835031
  @DF-RKS Final Energy:  -184.70136638123071
    Total Energy =                       -184.7013663812307129
  @DF-RKS Final Energy:  -184.70136579516517
    Total Energy =                       -184.7013657951651737
  @DF-RKS Final Energy:  -184.70136627714578
    Total Energy =                       -184.7013662771457518
  @DF-RKS Final Energy:  -184.70136583836964
    Total Energy =                       -184.7013658383696679
  @DF-RKS Final Energy:  -184.70136784548379
    Total Energy =                       -184.7013678454837873
  @DF-RKS Final Energy:  -184.70136638123077
    Total Energy =                       -184.7013663812307698
  @DF-RKS Final Energy:  -184.70136579516529
    Total Energy =                       -184.7013657951652874
  @DF-RKS Final Energy:  -184.70136627714569
    Total Energy =                       -184.7013662771456950
  @DF-RKS Final Energy:  -184.70136583836967
    Total Energy =                       -184.7013658383696963
  Basis Set: CC-PV(Q+D)Z
    Blend: CC-PV(Q+D)Z
  Basis Set: (CC-PV(Q+D)Z AUX)
    Blend: CC-PVQZ-JKFIT
  @DF-RKS Final Energy:  -184.70136562055055
    Total Energy =                       -184.7013656205505470
  Basis Set: CC-PV(Q+D)Z
    Blend: CC-PV(Q+D)Z
  Basis Set: (CC-PV(Q+D)Z AUX)
    Blend: CC-PVQZ-JKFIT
  @DF-RKS Final Energy:  -184.70136664120540
    Total Energy =                       -184.7013666412053681
  Multiplicity = 1
  Basis Set: CC-PV(Q+D)Z
    Blend: CC-PV(Q+D)Z
  Basis Set: (CC-PV(Q+D)Z AUX)
    Blend: CC-PVQZ-JKFIT
  @DF-RKS Final Energy:  -184.70136765948888
    Total Energy =                       -184.7013676594888807
    Molecular point group: cs

    Geometry (in Angstrom), charge = 0, multiplicity = 1:

       Center              X                  Y                   Z               Mass
    ------------   -----------------  -----------------  -----------------  -----------------
         N            0.000000000000    -0.000300016475    -1.189532717205    14.003074004430
         N            0.000000000000     0.000582960809    -0.074904572516    14.003074004430
         O            0.000000000000    -0.000247709384     1.106977396444    15.994914619570

  Charge       = 0
  Multiplicity = 1
  Basis Set: CC-PV(Q+D)Z
    Blend: CC-PV(Q+D)Z
  Basis Set: (CC-PV(Q+D)Z AUX)
    Blend: CC-PVQZ-JKFIT

    Orbital Energies [Eh]
    ---------------------

    Doubly Occupied:

       1Ap   -19.425358     2Ap   -14.738722     3Ap   -14.602898
       4Ap    -1.380105     5Ap    -1.222395     6Ap    -0.719741
       1App   -0.685225     7Ap    -0.685225     8Ap    -0.593314
       2App   -0.443551     9Ap    -0.443551

  @DF-RKS Final Energy:  -184.70136765956715

   => Energetics <=

    Nuclear Repulsion Energy =             61.2404657671719832
    One-Electron Energy =                -371.8394432842566175
    Two-Electron Energy =                 142.0002718306684528
    DFT Exchange-Correlation Energy =     -16.1938710112889055
    Empirical Dispersion Energy =           0.0000000000000000
    VV10 Nonlocal Energy =                  0.0912090381379232
    Total Energy =                       -184.7013676595671541

  Dipole Moment: [D]
     X:     0.0000      Y:     0.0011      Z:    -0.1702     Total:     0.1702

  Vibration                       6                   7                   8
  Freq [cm^-1]                 626.9146            627.0466           1346.1218
  Irrep                           B2                  B1                  A1
  Reduced mass [u]             14.2519             14.2519             15.1281
  Force const [mDyne/A]         3.3002              3.3016             16.1511

  Vibration                       9
  Freq [cm^-1]                2383.6946
  Irrep                           A1
  Reduced mass [u]             14.0720
  Force const [mDyne/A]        47.1092

  ==> Thermochemistry Components <==

  Entropy, S
    Electronic S            0.000 [cal/(mol K)]        0.000 [J/(mol K)]       0.00000000 [mEh/K] (multiplicity = 1)
    Translational S        37.271 [cal/(mol K)]      155.941 [J/(mol K)]       0.05939493 [mEh/K] (mol. weight = 44.0011 [u], P = 101325.00 [Pa])
    Rotational S           14.278 [cal/(mol K)]       59.740 [J/(mol K)]       0.02275392 [mEh/K] (symmetry no. = 1)
    Vibrational S           0.834 [cal/(mol K)]        3.489 [J/(mol K)]       0.00132873 [mEh/K]
  Total S                  52.383 [cal/(mol K)]      219.170 [J/(mol K)]       0.08347758 [mEh/K]
  Correction S              0.000 [cal/(mol K)]        0.000 [J/(mol K)]       0.00000000 [mEh/K]

  Constant volume heat capacity, Cv
    Electronic Cv           0.000 [cal/(mol K)]        0.000 [J/(mol K)]       0.00000000 [mEh/K]
    Translational Cv        2.981 [cal/(mol K)]       12.472 [J/(mol K)]       0.00475022 [mEh/K]
    Rotational Cv           1.987 [cal/(mol K)]        8.314 [J/(mol K)]       0.00316681 [mEh/K]
    Vibrational Cv          2.080 [cal/(mol K)]        8.702 [J/(mol K)]       0.00331456 [mEh/K]
  Total Cv                  7.048 [cal/(mol K)]       29.489 [J/(mol K)]       0.01123159 [mEh/K]
  Correction Cv             0.000 [cal/(mol K)]        0.000 [J/(mol K)]       0.00000000 [mEh/K]

  Constant pressure heat capacity, Cp
    Electronic Cp           0.000 [cal/(mol K)]        0.000 [J/(mol K)]       0.00000000 [mEh/K]
    Translational Cp        4.968 [cal/(mol K)]       20.786 [J/(mol K)]       0.00791703 [mEh/K]
    Rotational Cp           1.987 [cal/(mol K)]        8.314 [J/(mol K)]       0.00316681 [mEh/K]
    Vibrational Cp          2.080 [cal/(mol K)]        8.702 [J/(mol K)]       0.00331456 [mEh/K]
  Total Cp                  9.035 [cal/(mol K)]       37.803 [J/(mol K)]       0.01439840 [mEh/K]
  Correction Cp             0.000 [cal/(mol K)]        0.000 [J/(mol K)]       0.00000000 [mEh/K]

  ==> Thermochemistry Energy Analysis <==

  Raw electronic energy, E0
  Total E0, Electronic energy at well bottom at 0 [K]                 -184.70136785 [Eh]

  Zero-point energy, ZPE_vib = Sum_i nu_i / 2
    Electronic ZPE          0.000 [kcal/mol]        0.000 [kJ/mol]       0.00000000 [Eh]
    Translational ZPE       0.000 [kcal/mol]        0.000 [kJ/mol]       0.00000000 [Eh]
    Rotational ZPE          0.000 [kcal/mol]        0.000 [kJ/mol]       0.00000000 [Eh]
    Vibrational ZPE         7.125 [kcal/mol]       29.810 [kJ/mol]       0.01135388 [Eh]        2491.889 [cm^-1]
  Correction ZPE            7.125 [kcal/mol]       29.810 [kJ/mol]       0.01135388 [Eh]        2491.889 [cm^-1]
  Total ZPE, Electronic energy at 0 [K]                               -184.69001396 [Eh]

  Thermal Energy, E (includes ZPE)
    Electronic E            0.000 [kcal/mol]        0.000 [kJ/mol]       0.00000000 [Eh]
    Translational E         0.889 [kcal/mol]        3.718 [kJ/mol]       0.00141628 [Eh]
    Rotational E            0.592 [kcal/mol]        2.479 [kJ/mol]       0.00094418 [Eh]
    Vibrational E           7.313 [kcal/mol]       30.599 [kJ/mol]       0.01165467 [Eh]
  Correction E              8.795 [kcal/mol]       36.797 [kJ/mol]       0.01401513 [Eh]
  Total E, Electronic energy at  298.15 [K]                           -184.68735272 [Eh]

  Enthalpy, H_trans = E_trans + k_B * T
    Electronic H            0.000 [kcal/mol]        0.000 [kJ/mol]       0.00000000 [Eh]
    Translational H         1.481 [kcal/mol]        6.197 [kJ/mol]       0.00236046 [Eh]
    Rotational H            0.592 [kcal/mol]        2.479 [kJ/mol]       0.00094418 [Eh]
    Vibrational H           7.313 [kcal/mol]       30.599 [kJ/mol]       0.01165467 [Eh]
  Correction H              9.387 [kcal/mol]       39.276 [kJ/mol]       0.01495931 [Eh]
  Total H, Enthalpy at  298.15 [K]                                    -184.68640853 [Eh]

  Gibbs free energy, G = H - T * S
    Electronic G            0.000 [kcal/mol]        0.000 [kJ/mol]       0.00000000 [Eh]
    Translational G        -9.631 [kcal/mol]      -40.297 [kJ/mol]      -0.01534814 [Eh]
    Rotational G           -3.665 [kcal/mol]      -15.333 [kJ/mol]      -0.00583990 [Eh]
    Vibrational G           7.065 [kcal/mol]       29.559 [kJ/mol]       0.01125851 [Eh]
  Correction G             -6.231 [kcal/mol]      -26.070 [kJ/mol]      -0.00992952 [Eh]
  Total G, Free enthalpy at  298.15 [K]                               -184.71129737 [Eh]

*** Psi4 exiting successfully. Buy a developer a beer!
