                               Psi4 1.3.2 release

  ==> Input File <==

--------------------------------------------------------------------------
memory 144 GB

molecule {
0 1
O 0.0000000000 0.0000000000 0.0000000000
C 0.0000000000 0.0000000000 1.1584320400
S 0.0000000000 0.0000000000 2.7252829900
}

set dynamic_level 1
set basis cc-pV(Q+d)Z

optimize("wB97M-V")
frequencies("wB97M-V")
--------------------------------------------------------------------------

    Molecular point group: c2v
  Charge       = 0
  Multiplicity = 1
  Basis Set: CC-PV(Q+D)Z
    Blend: CC-PV(Q+D)Z
  Basis Set: (CC-PV(Q+D)Z AUX)
    Blend: CC-PVQZ-JKFIT
  @DF-RKS Final Energy:  -511.56597303708537
    Total Energy =                       -511.5659730370853708
    Molecular point group: c2v
  Basis Set: CC-PV(Q+D)Z
    Blend: CC-PV(Q+D)Z
  Basis Set: (CC-PV(Q+D)Z AUX)
    Blend: CC-PVQZ-JKFIT
  @DF-RKS Final Energy:  -511.56594577514727
    Total Energy =                       -511.5659457751473269
  Basis Set: CC-PV(Q+D)Z
    Blend: CC-PV(Q+D)Z
  Basis Set: (CC-PV(Q+D)Z AUX)
    Blend: CC-PVQZ-JKFIT
  @DF-RKS Final Energy:  -511.56599807861772
    Total Energy =                       -511.5659980786177243
  Basis Set: CC-PV(Q+D)Z
    Blend: CC-PV(Q+D)Z
  Basis Set: (CC-PV(Q+D)Z AUX)
    Blend: CC-PVQZ-JKFIT
  @DF-RKS Final Energy:  -511.56598284011488
    Total Energy =                       -511.5659828401148843
  @DF-RKS Final Energy:  -511.56596063543623
    Total Energy =                       -511.5659606354361699
  @DF-RKS Final Energy:  -511.56614999943645
    Total Energy =                       -511.5661499994364476
  @DF-RKS Final Energy:  -511.56614566118407
    Total Energy =                       -511.5661456611841231
  @DF-RKS Final Energy:  -511.56615199767805
    Total Energy =                       -511.5661519976780482
  @DF-RKS Final Energy:  -511.56615120073292
    Total Energy =                       -511.5661512007329179
  @DF-RKS Final Energy:  -511.56614607285502
    Total Energy =                       -511.5661460728550765
  @DF-RKS Final Energy:  -511.56615212067743
    Total Energy =                       -511.5661521206774296
  @DF-RKS Final Energy:  -511.56615084772932
    Total Energy =                       -511.5661508477293182
  @DF-RKS Final Energy:  -511.56615103859843
    Total Energy =                       -511.5661510385984343
  @DF-RKS Final Energy:  -511.56615110547239
    Total Energy =                       -511.5661511054724429
  @DF-RKS Final Energy:  -511.56615039964441
    Total Energy =                       -511.5661503996444708
  **** Optimization is complete! (in 3 steps) ****
    Final optimized geometry and variables:
  @DF-RKS Final Energy:  -511.56615212067737
    Total Energy =                       -511.5661521206773727
  @DF-RKS Final Energy:  -511.56615084772938
    Total Energy =                       -511.5661508477293751
  @DF-RKS Final Energy:  -511.56615103859843
    Total Energy =                       -511.5661510385984343
  @DF-RKS Final Energy:  -511.56615110547261
    Total Energy =                       -511.5661511054726134
  @DF-RKS Final Energy:  -511.56615039964419
    Total Energy =                       -511.5661503996441866
  @DF-RKS Final Energy:  -511.56615212067692
    Total Energy =                       -511.5661521206769180
  @DF-RKS Final Energy:  -511.56615084772989
    Total Energy =                       -511.5661508477298298
  @DF-RKS Final Energy:  -511.56615103859855
    Total Energy =                       -511.5661510385984911
  @DF-RKS Final Energy:  -511.56615110547227
    Total Energy =                       -511.5661511054722723
  @DF-RKS Final Energy:  -511.56615039964419
    Total Energy =                       -511.5661503996441866
  Basis Set: CC-PV(Q+D)Z
    Blend: CC-PV(Q+D)Z
  Basis Set: (CC-PV(Q+D)Z AUX)
    Blend: CC-PVQZ-JKFIT
  @DF-RKS Final Energy:  -511.56615110753245
    Total Energy =                       -511.5661511075324483
  Basis Set: CC-PV(Q+D)Z
    Blend: CC-PV(Q+D)Z
  Basis Set: (CC-PV(Q+D)Z AUX)
    Blend: CC-PVQZ-JKFIT
  @DF-RKS Final Energy:  -511.56615162016777
    Total Energy =                       -511.5661516201678296
  Multiplicity = 1
  Basis Set: CC-PV(Q+D)Z
    Blend: CC-PV(Q+D)Z
  Basis Set: (CC-PV(Q+D)Z AUX)
    Blend: CC-PVQZ-JKFIT
  @DF-RKS Final Energy:  -511.56615198410907
    Total Energy =                       -511.5661519841090694
    Molecular point group: cs

    Geometry (in Angstrom), charge = 0, multiplicity = 1:

       Center              X                  Y                   Z               Mass
    ------------   -----------------  -----------------  -----------------  -----------------
         O            0.000000000000    -0.000287580069    -1.675523544495    15.994914619570
         C            0.000000000000     0.000665747400    -0.525453144160    12.000000000000
         S            0.000000000000    -0.000106003460     1.035444140813    31.972071174400

  Charge       = 0
  Multiplicity = 1
  Basis Set: CC-PV(Q+D)Z
    Blend: CC-PV(Q+D)Z
  Basis Set: (CC-PV(Q+D)Z AUX)
    Blend: CC-PVQZ-JKFIT

    Orbital Energies [Eh]
    ---------------------

    Doubly Occupied:

       1Ap   -89.235785     2Ap   -19.418389     3Ap   -10.510898
       4Ap    -8.151626     5Ap    -6.062167     1App   -6.056340
       6Ap    -6.056340     7Ap    -1.278974     8Ap    -0.944654
       9Ap    -0.668815     2App   -0.595011    10Ap    -0.595011
      11Ap    -0.576214     3App   -0.395336    12Ap    -0.395336

  @DF-RKS Final Energy:  -511.56615198447872

   => Energetics <=

    Nuclear Repulsion Energy =             79.6174906287435675
    One-Electron Energy =                -861.7460842648505377
    Two-Electron Energy =                 300.3566666924116930
    DFT Exchange-Correlation Energy =     -29.9187008480942467
    Empirical Dispersion Energy =           0.0000000000000000
    VV10 Nonlocal Energy =                  0.1244758073107907
    Total Energy =                       -511.5661519844787790

  Dipole Moment: [D]
     X:     0.0000      Y:     0.0007      Z:     0.6531     Total:     0.6531

  Vibration                       6                   7                   8
  Freq [cm^-1]                 536.5806            537.3082            888.3978
  Irrep                           B2                  B1                  A1
  Reduced mass [u]             13.0329             13.0329             19.5878
  Force const [mDyne/A]         2.2109              2.2169              9.1086

  Vibration                       9
  Freq [cm^-1]                2142.9266
  Irrep                           A1
  Reduced mass [u]             13.1491
  Force const [mDyne/A]        35.5764

  ==> Thermochemistry Components <==

  Entropy, S
    Electronic S            0.000 [cal/(mol K)]        0.000 [J/(mol K)]       0.00000000 [mEh/K] (multiplicity = 1)
    Translational S        38.194 [cal/(mol K)]      159.802 [J/(mol K)]       0.06086550 [mEh/K] (mol. weight = 59.9670 [u], P = 101325.00 [Pa])
    Rotational S           15.742 [cal/(mol K)]       65.865 [J/(mol K)]       0.02508667 [mEh/K] (symmetry no. = 1)
    Vibrational S           1.291 [cal/(mol K)]        5.400 [J/(mol K)]       0.00205694 [mEh/K]
  Total S                  55.227 [cal/(mol K)]      231.068 [J/(mol K)]       0.08800910 [mEh/K]
  Correction S              0.000 [cal/(mol K)]        0.000 [J/(mol K)]       0.00000000 [mEh/K]

  Constant volume heat capacity, Cv
    Electronic Cv           0.000 [cal/(mol K)]        0.000 [J/(mol K)]       0.00000000 [mEh/K]
    Translational Cv        2.981 [cal/(mol K)]       12.472 [J/(mol K)]       0.00475022 [mEh/K]
    Rotational Cv           1.987 [cal/(mol K)]        8.314 [J/(mol K)]       0.00316681 [mEh/K]
    Vibrational Cv          2.860 [cal/(mol K)]       11.965 [J/(mol K)]       0.00455706 [mEh/K]
  Total Cv                  7.828 [cal/(mol K)]       32.751 [J/(mol K)]       0.01247408 [mEh/K]
  Correction Cv             0.000 [cal/(mol K)]        0.000 [J/(mol K)]       0.00000000 [mEh/K]

  Constant pressure heat capacity, Cp
    Electronic Cp           0.000 [cal/(mol K)]        0.000 [J/(mol K)]       0.00000000 [mEh/K]
    Translational Cp        4.968 [cal/(mol K)]       20.786 [J/(mol K)]       0.00791703 [mEh/K]
    Rotational Cp           1.987 [cal/(mol K)]        8.314 [J/(mol K)]       0.00316681 [mEh/K]
    Vibrational Cp          2.860 [cal/(mol K)]       11.965 [J/(mol K)]       0.00455706 [mEh/K]
  Total Cp                  9.815 [cal/(mol K)]       41.065 [J/(mol K)]       0.01564090 [mEh/K]
  Correction Cp             0.000 [cal/(mol K)]        0.000 [J/(mol K)]       0.00000000 [mEh/K]

  ==> Thermochemistry Energy Analysis <==

  Raw electronic energy, E0
  Total E0, Electronic energy at well bottom at 0 [K]                 -511.56615212 [Eh]

  Zero-point energy, ZPE_vib = Sum_i nu_i / 2
    Electronic ZPE          0.000 [kcal/mol]        0.000 [kJ/mol]       0.00000000 [Eh]
    Translational ZPE       0.000 [kcal/mol]        0.000 [kJ/mol]       0.00000000 [Eh]
    Rotational ZPE          0.000 [kcal/mol]        0.000 [kJ/mol]       0.00000000 [Eh]
    Vibrational ZPE         5.869 [kcal/mol]       24.555 [kJ/mol]       0.00935236 [Eh]        2052.607 [cm^-1]
  Correction ZPE            5.869 [kcal/mol]       24.555 [kJ/mol]       0.00935236 [Eh]        2052.607 [cm^-1]
  Total ZPE, Electronic energy at 0 [K]                               -511.55679976 [Eh]

  Thermal Energy, E (includes ZPE)
    Electronic E            0.000 [kcal/mol]        0.000 [kJ/mol]       0.00000000 [Eh]
    Translational E         0.889 [kcal/mol]        3.718 [kJ/mol]       0.00141628 [Eh]
    Rotational E            0.592 [kcal/mol]        2.479 [kJ/mol]       0.00094418 [Eh]
    Vibrational E           6.153 [kcal/mol]       25.744 [kJ/mol]       0.00980545 [Eh]
  Correction E              7.634 [kcal/mol]       31.942 [kJ/mol]       0.01216591 [Eh]
  Total E, Electronic energy at  298.15 [K]                           -511.55398621 [Eh]

  Enthalpy, H_trans = E_trans + k_B * T
    Electronic H            0.000 [kcal/mol]        0.000 [kJ/mol]       0.00000000 [Eh]
    Translational H         1.481 [kcal/mol]        6.197 [kJ/mol]       0.00236046 [Eh]
    Rotational H            0.592 [kcal/mol]        2.479 [kJ/mol]       0.00094418 [Eh]
    Vibrational H           6.153 [kcal/mol]       25.744 [kJ/mol]       0.00980545 [Eh]
  Correction H              8.227 [kcal/mol]       34.421 [kJ/mol]       0.01311010 [Eh]
  Total H, Enthalpy at  298.15 [K]                                    -511.55304202 [Eh]

  Gibbs free energy, G = H - T * S
    Electronic G            0.000 [kcal/mol]        0.000 [kJ/mol]       0.00000000 [Eh]
    Translational G        -9.906 [kcal/mol]      -41.448 [kJ/mol]      -0.01578659 [Eh]
    Rotational G           -4.101 [kcal/mol]      -17.159 [kJ/mol]      -0.00653541 [Eh]
    Vibrational G           5.768 [kcal/mol]       24.134 [kJ/mol]       0.00919218 [Eh]
  Correction G             -8.239 [kcal/mol]      -34.472 [kJ/mol]      -0.01312982 [Eh]
  Total G, Free enthalpy at  298.15 [K]                               -511.57928194 [Eh]

*** Psi4 exiting successfully. Buy a developer a beer!
