                               Psi4 1.3.2 release

  ==> Input File <==

--------------------------------------------------------------------------
memory 144 GB

molecule {
0 1
P 0.0000000000 0.0000000000 -0.0679917919
H 1.1903431933 0.0000000000 0.6964572780
H -0.5951715967 -1.0308674445 0.6964572780
H -0.5951715967 1.0308674445 0.6964572780
}

set dynamic_level 1
set basis cc-pV(Q+d)Z

optimize("wB97M-V")
frequencies("wB97M-V")
--------------------------------------------------------------------------

    Molecular point group: cs
  Charge       = 0
  Multiplicity = 1
  Basis Set: CC-PV(Q+D)Z
    Blend: CC-PV(Q+D)Z
  Basis Set: (CC-PV(Q+D)Z AUX)
    Blend: CC-PVQZ-JKFIT
  @DF-RKS Final Energy:  -343.12522107986013
    Total Energy =                       -343.1252210798601254
    Molecular point group: cs
  Basis Set: CC-PV(Q+D)Z
    Blend: CC-PV(Q+D)Z
  Basis Set: (CC-PV(Q+D)Z AUX)
    Blend: CC-PVQZ-JKFIT
  @DF-RKS Final Energy:  -343.12521893323969
    Total Energy =                       -343.1252189332397506
  Basis Set: CC-PV(Q+D)Z
    Blend: CC-PV(Q+D)Z
  Basis Set: (CC-PV(Q+D)Z AUX)
    Blend: CC-PVQZ-JKFIT
  @DF-RKS Final Energy:  -343.12521920088182
    Total Energy =                       -343.1252192008817588
  Basis Set: CC-PV(Q+D)Z
    Blend: CC-PV(Q+D)Z
  Basis Set: (CC-PV(Q+D)Z AUX)
    Blend: CC-PVQZ-JKFIT
  @DF-RKS Final Energy:  -343.12522183246017
    Total Energy =                       -343.1252218324601699
  @DF-RKS Final Energy:  -343.12521811460044
    Total Energy =                       -343.1252181146005000
  @DF-RKS Final Energy:  -343.12522608473017
    Total Energy =                       -343.1252260847302296
  @DF-RKS Final Energy:  -343.12521254593264
    Total Energy =                       -343.1252125459326408
  @DF-RKS Final Energy:  -343.12522610479567
    Total Energy =                       -343.1252261047957290
  @DF-RKS Final Energy:  -343.12521252453121
    Total Energy =                       -343.1252125245312072
  @DF-RKS Final Energy:  -343.12523448303455
    Total Energy =                       -343.1252344830345464
  @DF-RKS Final Energy:  -343.12523249272516
    Total Energy =                       -343.1252324927251607
  @DF-RKS Final Energy:  -343.12523240119617
    Total Energy =                       -343.1252324011961718
  @DF-RKS Final Energy:  -343.12523269927578
    Total Energy =                       -343.1252326992757844
  @DF-RKS Final Energy:  -343.12523402209450
    Total Energy =                       -343.1252340220945598
  @DF-RKS Final Energy:  -343.12523203903521
    Total Energy =                       -343.1252320390352111
  @DF-RKS Final Energy:  -343.12523336611468
    Total Energy =                       -343.1252333661147418
  @DF-RKS Final Energy:  -343.12523203803437
    Total Energy =                       -343.1252320380343690
  @DF-RKS Final Energy:  -343.12523336605966
    Total Energy =                       -343.1252333660597174
  **** Optimization is complete! (in 2 steps) ****
    Final optimized geometry and variables:
  @DF-RKS Final Energy:  -343.12523448310333
    Total Energy =                       -343.1252344831033270
  @DF-RKS Final Energy:  -343.12523249283976
    Total Energy =                       -343.1252324928397570
  @DF-RKS Final Energy:  -343.12523203914043
    Total Energy =                       -343.1252320391404282
  @DF-RKS Final Energy:  -343.12523336603192
    Total Energy =                       -343.1252333660319778
  @DF-RKS Final Energy:  -343.12523203802846
    Total Energy =                       -343.1252320380284004
  @DF-RKS Final Energy:  -343.12523336599054
    Total Energy =                       -343.1252333659905389
  @DF-RKS Final Energy:  -343.12523194017257
    Total Energy =                       -343.1252319401725117
  @DF-RKS Final Energy:  -343.12523069403358
    Total Energy =                       -343.1252306940335757
  @DF-RKS Final Energy:  -343.12522982871258
    Total Energy =                       -343.1252298287125768
  @DF-RKS Final Energy:  -343.12522854857201
    Total Energy =                       -343.1252285485720108
  @DF-RKS Final Energy:  -343.12523145085731
    Total Energy =                       -343.1252314508573704
  @DF-RKS Final Energy:  -343.12522878022764
    Total Energy =                       -343.1252287802275873
  @DF-RKS Final Energy:  -343.12523277399009
    Total Energy =                       -343.1252327739900920
  @DF-RKS Final Energy:  -343.12523154292910
    Total Energy =                       -343.1252315429291002
  @DF-RKS Final Energy:  -343.12523145072163
    Total Energy =                       -343.1252314507216852
  @DF-RKS Final Energy:  -343.12522877914751
    Total Energy =                       -343.1252287791475055
  @DF-RKS Final Energy:  -343.12523146907228
    Total Energy =                       -343.1252314690722756
  @DF-RKS Final Energy:  -343.12522880532833
    Total Energy =                       -343.1252288053283905
  Basis Set: CC-PV(Q+D)Z
    Blend: CC-PV(Q+D)Z
  Basis Set: (CC-PV(Q+D)Z AUX)
    Blend: CC-PVQZ-JKFIT
  @DF-RKS Final Energy:  -343.12523243046786
    Total Energy =                       -343.1252324304678609
  Basis Set: CC-PV(Q+D)Z
    Blend: CC-PV(Q+D)Z
  Basis Set: (CC-PV(Q+D)Z AUX)
    Blend: CC-PVQZ-JKFIT
  @DF-RKS Final Energy:  -343.12523132748191
    Total Energy =                       -343.1252313274819130
  Multiplicity = 1
  Basis Set: CC-PV(Q+D)Z
    Blend: CC-PV(Q+D)Z
  Basis Set: (CC-PV(Q+D)Z AUX)
    Blend: CC-PVQZ-JKFIT
  @DF-RKS Final Energy:  -343.12523137153806
    Total Energy =                       -343.1252313715380637
    Molecular point group: c1

    Geometry (in Angstrom), charge = 0, multiplicity = 1:

       Center              X                  Y                   Z               Mass
    ------------   -----------------  -----------------  -----------------  -----------------
         P            0.000007773481     0.068263613443    -0.000106741552    30.973761998420
         H            0.591187464933    -0.700533988518     1.026807083786     1.007825032230
         H            0.593823057903    -0.698080795264    -1.026141700620     1.007825032230
         H           -1.185249427351    -0.699349494064     0.002615134120     1.007825032230

  Charge       = 0
  Multiplicity = 1
  Basis Set: CC-PV(Q+D)Z
    Blend: CC-PV(Q+D)Z
  Basis Set: (CC-PV(Q+D)Z AUX)
    Blend: CC-PVQZ-JKFIT

    Orbital Energies [Eh]
    ---------------------

    Doubly Occupied:

       1A    -77.385912     2A     -6.721886     3A     -4.834557
       4A     -4.834554     5A     -4.830939     6A     -0.762404
       7A     -0.480509     8A     -0.479833     9A     -0.370217

  @DF-RKS Final Energy:  -343.12523137139772

   => Energetics <=

    Nuclear Repulsion Energy =             17.6372185346703603
    One-Electron Energy =                -508.6468517023335494
    Two-Electron Energy =                 166.2100737749211703
    DFT Exchange-Correlation Energy =     -18.4010328640796956
    Empirical Dispersion Energy =           0.0000000000000000
    VV10 Nonlocal Energy =                  0.0753608854239829
    Total Energy =                       -343.1252313713977173

  Dipole Moment: [D]
     X:     0.0001      Y:    -0.5688      Z:    -0.0027     Total:     0.5688

  Vibration                       7                   8                   9
  Freq [cm^-1]                1013.9914           1138.7823           1732.3385
  Irrep                           Ap                  Ap                 App
  Reduced mass [u]              1.0750              1.0255              1.0452
  Force const [mDyne/A]         0.6512              0.7835              1.8480

  Vibration                       10                  11                  12
  Freq [cm^-1]                2436.2854           2438.3077           2830.0344
  Irrep                           Ap                  Ap                 App
  Reduced mass [u]              1.0343              1.0384              1.0211
  Force const [mDyne/A]         3.6172              3.6376              4.8185

  ==> Thermochemistry Components <==

  Entropy, S
    Electronic S            0.000 [cal/(mol K)]        0.000 [J/(mol K)]       0.00000000 [mEh/K] (multiplicity = 1)
    Translational S        36.502 [cal/(mol K)]      152.724 [J/(mol K)]       0.05816968 [mEh/K] (mol. weight = 33.9972 [u], P = 101325.00 [Pa])
    Rotational S           15.659 [cal/(mol K)]       65.517 [J/(mol K)]       0.02495396 [mEh/K] (symmetry no. = 1)
    Vibrational S           0.146 [cal/(mol K)]        0.612 [J/(mol K)]       0.00023329 [mEh/K]
  Total S                  52.307 [cal/(mol K)]      218.854 [J/(mol K)]       0.08335692 [mEh/K]
  Correction S              0.000 [cal/(mol K)]        0.000 [J/(mol K)]       0.00000000 [mEh/K]

  Constant volume heat capacity, Cv
    Electronic Cv           0.000 [cal/(mol K)]        0.000 [J/(mol K)]       0.00000000 [mEh/K]
    Translational Cv        2.981 [cal/(mol K)]       12.472 [J/(mol K)]       0.00475022 [mEh/K]
    Rotational Cv           2.981 [cal/(mol K)]       12.472 [J/(mol K)]       0.00475022 [mEh/K]
    Vibrational Cv          0.648 [cal/(mol K)]        2.710 [J/(mol K)]       0.00103235 [mEh/K]
  Total Cv                  6.609 [cal/(mol K)]       27.654 [J/(mol K)]       0.01053278 [mEh/K]
  Correction Cv             0.000 [cal/(mol K)]        0.000 [J/(mol K)]       0.00000000 [mEh/K]

  Constant pressure heat capacity, Cp
    Electronic Cp           0.000 [cal/(mol K)]        0.000 [J/(mol K)]       0.00000000 [mEh/K]
    Translational Cp        4.968 [cal/(mol K)]       20.786 [J/(mol K)]       0.00791703 [mEh/K]
    Rotational Cp           2.981 [cal/(mol K)]       12.472 [J/(mol K)]       0.00475022 [mEh/K]
    Vibrational Cp          0.648 [cal/(mol K)]        2.710 [J/(mol K)]       0.00103235 [mEh/K]
  Total Cp                  8.597 [cal/(mol K)]       35.968 [J/(mol K)]       0.01369959 [mEh/K]
  Correction Cp             0.000 [cal/(mol K)]        0.000 [J/(mol K)]       0.00000000 [mEh/K]

  ==> Thermochemistry Energy Analysis <==

  Raw electronic energy, E0
  Total E0, Electronic energy at well bottom at 0 [K]                 -343.12523448 [Eh]

  Zero-point energy, ZPE_vib = Sum_i nu_i / 2
    Electronic ZPE          0.000 [kcal/mol]        0.000 [kJ/mol]       0.00000000 [Eh]
    Translational ZPE       0.000 [kcal/mol]        0.000 [kJ/mol]       0.00000000 [Eh]
    Rotational ZPE          0.000 [kcal/mol]        0.000 [kJ/mol]       0.00000000 [Eh]
    Vibrational ZPE        16.568 [kcal/mol]       69.322 [kJ/mol]       0.02640337 [Eh]        5794.870 [cm^-1]
  Correction ZPE           16.568 [kcal/mol]       69.322 [kJ/mol]       0.02640337 [Eh]        5794.870 [cm^-1]
  Total ZPE, Electronic energy at 0 [K]                               -343.09883111 [Eh]

  Thermal Energy, E (includes ZPE)
    Electronic E            0.000 [kcal/mol]        0.000 [kJ/mol]       0.00000000 [Eh]
    Translational E         0.889 [kcal/mol]        3.718 [kJ/mol]       0.00141628 [Eh]
    Rotational E            0.889 [kcal/mol]        3.718 [kJ/mol]       0.00141628 [Eh]
    Vibrational E          16.605 [kcal/mol]       69.475 [kJ/mol]       0.02646170 [Eh]
  Correction E             18.382 [kcal/mol]       76.912 [kJ/mol]       0.02929425 [Eh]
  Total E, Electronic energy at  298.15 [K]                           -343.09594023 [Eh]

  Enthalpy, H_trans = E_trans + k_B * T
    Electronic H            0.000 [kcal/mol]        0.000 [kJ/mol]       0.00000000 [Eh]
    Translational H         1.481 [kcal/mol]        6.197 [kJ/mol]       0.00236046 [Eh]
    Rotational H            0.889 [kcal/mol]        3.718 [kJ/mol]       0.00141628 [Eh]
    Vibrational H          16.605 [kcal/mol]       69.475 [kJ/mol]       0.02646170 [Eh]
  Correction H             18.975 [kcal/mol]       79.391 [kJ/mol]       0.03023843 [Eh]
  Total H, Enthalpy at  298.15 [K]                                    -343.09499605 [Eh]

  Gibbs free energy, G = H - T * S
    Electronic G            0.000 [kcal/mol]        0.000 [kJ/mol]       0.00000000 [Eh]
    Translational G        -9.402 [kcal/mol]      -39.337 [kJ/mol]      -0.01498283 [Eh]
    Rotational G           -3.780 [kcal/mol]      -15.815 [kJ/mol]      -0.00602375 [Eh]
    Vibrational G          16.561 [kcal/mol]       69.293 [kJ/mol]       0.02639214 [Eh]
  Correction G              3.379 [kcal/mol]       14.140 [kJ/mol]       0.00538557 [Eh]
  Total G, Free enthalpy at  298.15 [K]                               -343.11984892 [Eh]

*** Psi4 exiting successfully. Buy a developer a beer!
