                               Psi4 1.3.2 release

  ==> Input File <==

--------------------------------------------------------------------------
memory 144 GB

molecule {
0 1
Si 0.0000000000 0.0000000000 0.0000000000
O 0.0000000000 0.0000000000 1.5170406700
}

set dynamic_level 1
set basis cc-pV(Q+d)Z

optimize("wB97M-V")
frequencies("wB97M-V")
--------------------------------------------------------------------------

    Molecular point group: c2v
  Charge       = 0
  Multiplicity = 1
  Basis Set: CC-PV(Q+D)Z
    Blend: CC-PV(Q+D)Z
  Basis Set: (CC-PV(Q+D)Z AUX)
    Blend: CC-PVQZ-JKFIT
  @DF-RKS Final Energy:  -364.74722160589425
    Total Energy =                       -364.7472216058941967
    Molecular point group: c2v
  Basis Set: CC-PV(Q+D)Z
    Blend: CC-PV(Q+D)Z
  Basis Set: (CC-PV(Q+D)Z AUX)
    Blend: CC-PVQZ-JKFIT
  @DF-RKS Final Energy:  -364.74719847927588
    Total Energy =                       -364.7471984792758803
  Basis Set: CC-PV(Q+D)Z
    Blend: CC-PV(Q+D)Z
  Basis Set: (CC-PV(Q+D)Z AUX)
    Blend: CC-PVQZ-JKFIT
  @DF-RKS Final Energy:  -364.74724326247582
    Total Energy =                       -364.7472432624758767
  Basis Set: CC-PV(Q+D)Z
    Blend: CC-PV(Q+D)Z
  Basis Set: (CC-PV(Q+D)Z AUX)
    Blend: CC-PVQZ-JKFIT
  @DF-RKS Final Energy:  -364.74738529457460
    Total Energy =                       -364.7473852945745989
  @DF-RKS Final Energy:  -364.74738148422301
    Total Energy =                       -364.7473814842230126
  @DF-RKS Final Energy:  -364.74738754356832
    Total Energy =                       -364.7473875435683226
  @DF-RKS Final Energy:  -364.74738822394806
    Total Energy =                       -364.7473882239480645
  @DF-RKS Final Energy:  -364.74738754313773
    Total Energy =                       -364.7473875431377905
  @DF-RKS Final Energy:  -364.74738732864506
    Total Energy =                       -364.7473873286451180
  **** Optimization is complete! (in 3 steps) ****
    Final optimized geometry and variables:
  @DF-RKS Final Energy:  -364.74738822394829
    Total Energy =                       -364.7473882239482919
  @DF-RKS Final Energy:  -364.74738754313751
    Total Energy =                       -364.7473875431375063
  Basis Set: CC-PV(Q+D)Z
    Blend: CC-PV(Q+D)Z
  Basis Set: (CC-PV(Q+D)Z AUX)
    Blend: CC-PVQZ-JKFIT
  @DF-RKS Final Energy:  -364.74738732864523
    Total Energy =                       -364.7473873286452317
  Basis Set: CC-PV(Q+D)Z
    Blend: CC-PV(Q+D)Z
  Basis Set: (CC-PV(Q+D)Z AUX)
    Blend: CC-PVQZ-JKFIT
  @DF-RKS Final Energy:  -364.74738822394841
    Total Energy =                       -364.7473882239483487
  Multiplicity = 1
  Basis Set: CC-PV(Q+D)Z
    Blend: CC-PV(Q+D)Z
  Basis Set: (CC-PV(Q+D)Z AUX)
    Blend: CC-PVQZ-JKFIT
  @DF-RKS Final Energy:  -364.74738754313745
    Total Energy =                       -364.7473875431374495
    Molecular point group: c2v

    Geometry (in Angstrom), charge = 0, multiplicity = 1:

       Center              X                  Y                   Z               Mass
    ------------   -----------------  -----------------  -----------------  -----------------
         SI           0.000000000000     0.000000000000    -0.547068612524    27.976926534650
         O            0.000000000000     0.000000000000     0.956885281730    15.994914619570

  Charge       = 0
  Multiplicity = 1
  Basis Set: CC-PV(Q+D)Z
    Blend: CC-PV(Q+D)Z
  Basis Set: (CC-PV(Q+D)Z AUX)
    Blend: CC-PVQZ-JKFIT

    Orbital Energies [Eh]
    ---------------------

    Doubly Occupied:

       1A1   -66.454252     2A1   -19.311028     3A1    -5.474909
       1B1    -3.790601     1B2    -3.790601     4A1    -3.783929
       5A1    -1.066212     6A1    -0.542729     2B1    -0.435147
       2B2    -0.435147     7A1    -0.405525

  @DF-RKS Final Energy:  -364.74738732864512

   => Energetics <=

    Nuclear Repulsion Energy =             39.4080216298574086
    One-Electron Energy =                -583.3759096236232153
    Two-Electron Energy =                 201.3896905401560957
    DFT Exchange-Correlation Energy =     -22.2621592362993255
    Empirical Dispersion Energy =           0.0000000000000000
    VV10 Nonlocal Energy =                  0.0929693612638751
    Total Energy =                       -364.7473873286451180

  Dipole Moment: [D]
     X:     0.0000      Y:     0.0000      Z:    -3.2510     Total:     3.2510

  Vibration                       6
  Freq [cm^-1]                1290.7084
  Irrep                           A1
  Reduced mass [u]             18.9466
  Force const [mDyne/A]        18.5968

  ==> Thermochemistry Components <==

  Entropy, S
    Electronic S            0.000 [cal/(mol K)]        0.000 [J/(mol K)]       0.00000000 [mEh/K] (multiplicity = 1)
    Translational S        37.269 [cal/(mol K)]      155.933 [J/(mol K)]       0.05939177 [mEh/K] (mol. weight = 43.9718 [u], P = 101325.00 [Pa])
    Rotational S           13.208 [cal/(mol K)]       55.261 [J/(mol K)]       0.02104789 [mEh/K] (symmetry no. = 1)
    Vibrational S           0.028 [cal/(mol K)]        0.119 [J/(mol K)]       0.00004523 [mEh/K]
  Total S                  50.505 [cal/(mol K)]      211.313 [J/(mol K)]       0.08048489 [mEh/K]
  Correction S              0.000 [cal/(mol K)]        0.000 [J/(mol K)]       0.00000000 [mEh/K]

  Constant volume heat capacity, Cv
    Electronic Cv           0.000 [cal/(mol K)]        0.000 [J/(mol K)]       0.00000000 [mEh/K]
    Translational Cv        2.981 [cal/(mol K)]       12.472 [J/(mol K)]       0.00475022 [mEh/K]
    Rotational Cv           1.987 [cal/(mol K)]        8.314 [J/(mol K)]       0.00316681 [mEh/K]
    Vibrational Cv          0.153 [cal/(mol K)]        0.639 [J/(mol K)]       0.00024327 [mEh/K]
  Total Cv                  5.121 [cal/(mol K)]       21.425 [J/(mol K)]       0.00816029 [mEh/K]
  Correction Cv             0.000 [cal/(mol K)]        0.000 [J/(mol K)]       0.00000000 [mEh/K]

  Constant pressure heat capacity, Cp
    Electronic Cp           0.000 [cal/(mol K)]        0.000 [J/(mol K)]       0.00000000 [mEh/K]
    Translational Cp        4.968 [cal/(mol K)]       20.786 [J/(mol K)]       0.00791703 [mEh/K]
    Rotational Cp           1.987 [cal/(mol K)]        8.314 [J/(mol K)]       0.00316681 [mEh/K]
    Vibrational Cp          0.153 [cal/(mol K)]        0.639 [J/(mol K)]       0.00024327 [mEh/K]
  Total Cp                  7.108 [cal/(mol K)]       29.739 [J/(mol K)]       0.01132711 [mEh/K]
  Correction Cp             0.000 [cal/(mol K)]        0.000 [J/(mol K)]       0.00000000 [mEh/K]

  ==> Thermochemistry Energy Analysis <==

  Raw electronic energy, E0
  Total E0, Electronic energy at well bottom at 0 [K]                 -364.74738822 [Eh]

  Zero-point energy, ZPE_vib = Sum_i nu_i / 2
    Electronic ZPE          0.000 [kcal/mol]        0.000 [kJ/mol]       0.00000000 [Eh]
    Translational ZPE       0.000 [kcal/mol]        0.000 [kJ/mol]       0.00000000 [Eh]
    Rotational ZPE          0.000 [kcal/mol]        0.000 [kJ/mol]       0.00000000 [Eh]
    Vibrational ZPE         1.845 [kcal/mol]        7.720 [kJ/mol]       0.00294045 [Eh]         645.354 [cm^-1]
  Correction ZPE            1.845 [kcal/mol]        7.720 [kJ/mol]       0.00294045 [Eh]         645.354 [cm^-1]
  Total ZPE, Electronic energy at 0 [K]                               -364.74444777 [Eh]

  Thermal Energy, E (includes ZPE)
    Electronic E            0.000 [kcal/mol]        0.000 [kJ/mol]       0.00000000 [Eh]
    Translational E         0.889 [kcal/mol]        3.718 [kJ/mol]       0.00141628 [Eh]
    Rotational E            0.592 [kcal/mol]        2.479 [kJ/mol]       0.00094418 [Eh]
    Vibrational E           1.852 [kcal/mol]        7.751 [kJ/mol]       0.00295207 [Eh]
  Correction E              3.334 [kcal/mol]       13.948 [kJ/mol]       0.00531253 [Eh]
  Total E, Electronic energy at  298.15 [K]                           -364.74207569 [Eh]

  Enthalpy, H_trans = E_trans + k_B * T
    Electronic H            0.000 [kcal/mol]        0.000 [kJ/mol]       0.00000000 [Eh]
    Translational H         1.481 [kcal/mol]        6.197 [kJ/mol]       0.00236046 [Eh]
    Rotational H            0.592 [kcal/mol]        2.479 [kJ/mol]       0.00094418 [Eh]
    Vibrational H           1.852 [kcal/mol]        7.751 [kJ/mol]       0.00295207 [Eh]
  Correction H              3.926 [kcal/mol]       16.427 [kJ/mol]       0.00625672 [Eh]
  Total H, Enthalpy at  298.15 [K]                                    -364.74113151 [Eh]

  Gibbs free energy, G = H - T * S
    Electronic G            0.000 [kcal/mol]        0.000 [kJ/mol]       0.00000000 [Eh]
    Translational G        -9.631 [kcal/mol]      -40.294 [kJ/mol]      -0.01534720 [Eh]
    Rotational G           -3.345 [kcal/mol]      -13.997 [kJ/mol]      -0.00533124 [Eh]
    Vibrational G           1.844 [kcal/mol]        7.715 [kJ/mol]       0.00293859 [Eh]
  Correction G            -11.132 [kcal/mol]      -46.576 [kJ/mol]      -0.01773985 [Eh]
  Total G, Free enthalpy at  298.15 [K]                               -364.76512808 [Eh]

*** Psi4 exiting successfully. Buy a developer a beer!
