                               Psi4 1.3.2 release

  ==> Input File <==

--------------------------------------------------------------------------
memory 144 GB

molecule {
0 1
S 0.0000000000 0.0000000000 0.0000000000
O 0.0000000000 0.0000000000 1.4355085900
O 1.2508167239 0.0000000000 -0.7043737894
}

set dynamic_level 1
set basis cc-pV(Q+d)Z

optimize("wB97M-V")
frequencies("wB97M-V")
--------------------------------------------------------------------------

    Molecular point group: c2v
  Charge       = 0
  Multiplicity = 1
  Basis Set: CC-PV(Q+D)Z
    Blend: CC-PV(Q+D)Z
  Basis Set: (CC-PV(Q+D)Z AUX)
    Blend: CC-PVQZ-JKFIT
  @DF-RKS Final Energy:  -548.67232895558436
    Total Energy =                       -548.6723289555844758
    Molecular point group: c2v
  Basis Set: CC-PV(Q+D)Z
    Blend: CC-PV(Q+D)Z
  Basis Set: (CC-PV(Q+D)Z AUX)
    Blend: CC-PVQZ-JKFIT
  @DF-RKS Final Energy:  -548.67231339976342
    Total Energy =                       -548.6723133997634250
  Basis Set: CC-PV(Q+D)Z
    Blend: CC-PV(Q+D)Z
  Basis Set: (CC-PV(Q+D)Z AUX)
    Blend: CC-PVQZ-JKFIT
  @DF-RKS Final Energy:  -548.67234376283272
    Total Energy =                       -548.6723437628328384
  Basis Set: CC-PV(Q+D)Z
    Blend: CC-PV(Q+D)Z
  Basis Set: (CC-PV(Q+D)Z AUX)
    Blend: CC-PVQZ-JKFIT
  @DF-RKS Final Energy:  -548.67235070419133
    Total Energy =                       -548.6723507041913308
  @DF-RKS Final Energy:  -548.67230632005464
    Total Energy =                       -548.6723063200547585
  @DF-RKS Final Energy:  -548.67257312204742
    Total Energy =                       -548.6725731220475382
  @DF-RKS Final Energy:  -548.67256576137527
    Total Energy =                       -548.6725657613753810
  @DF-RKS Final Energy:  -548.67257970708931
    Total Energy =                       -548.6725797070893123
  @DF-RKS Final Energy:  -548.67257768965328
    Total Energy =                       -548.6725776896532807
  @DF-RKS Final Energy:  -548.67256763044816
    Total Energy =                       -548.6725676304481567
  @DF-RKS Final Energy:  -548.67260175748709
    Total Energy =                       -548.6726017574870866
  @DF-RKS Final Energy:  -548.67260318616229
    Total Energy =                       -548.6726031861622914
  @DF-RKS Final Energy:  -548.67259955075895
    Total Energy =                       -548.6725995507588323
  @DF-RKS Final Energy:  -548.67260066337349
    Total Energy =                       -548.6726006633733732
  @DF-RKS Final Energy:  -548.67260190685931
    Total Energy =                       -548.6726019068593132
  @DF-RKS Final Energy:  -548.67260442375562
    Total Energy =                       -548.6726044237557289
  @DF-RKS Final Energy:  -548.67260397125597
    Total Energy =                       -548.6726039712559668
  @DF-RKS Final Energy:  -548.67260409972278
    Total Energy =                       -548.6726040997226619
  @DF-RKS Final Energy:  -548.67260397258451
    Total Energy =                       -548.6726039725846249
  @DF-RKS Final Energy:  -548.67260393601032
    Total Energy =                       -548.6726039360104323
  **** Optimization is complete! (in 4 steps) ****
    Final optimized geometry and variables:
  @DF-RKS Final Energy:  -548.67260442375459
    Total Energy =                       -548.6726044237544784
  @DF-RKS Final Energy:  -548.67260397125676
    Total Energy =                       -548.6726039712567626
  @DF-RKS Final Energy:  -548.67260409972334
    Total Energy =                       -548.6726040997231166
  @DF-RKS Final Energy:  -548.67260397258519
    Total Energy =                       -548.6726039725850796
  @DF-RKS Final Energy:  -548.67260393601043
    Total Energy =                       -548.6726039360104323
  @DF-RKS Final Energy:  -548.67260442375527
    Total Energy =                       -548.6726044237552742
  @DF-RKS Final Energy:  -548.67260397125642
    Total Energy =                       -548.6726039712565353
  @DF-RKS Final Energy:  -548.67260409972278
    Total Energy =                       -548.6726040997226619
  @DF-RKS Final Energy:  -548.67260397258497
    Total Energy =                       -548.6726039725849660
  Basis Set: CC-PV(Q+D)Z
    Blend: CC-PV(Q+D)Z
  Basis Set: (CC-PV(Q+D)Z AUX)
    Blend: CC-PVQZ-JKFIT
  @DF-RKS Final Energy:  -548.67260393601134
    Total Energy =                       -548.6726039360113418
  Basis Set: CC-PV(Q+D)Z
    Blend: CC-PV(Q+D)Z
  Basis Set: (CC-PV(Q+D)Z AUX)
    Blend: CC-PVQZ-JKFIT
  @DF-RKS Final Energy:  -548.67260419633476
    Total Energy =                       -548.6726041963347598
  Multiplicity = 1
  Basis Set: CC-PV(Q+D)Z
    Blend: CC-PV(Q+D)Z
  Basis Set: (CC-PV(Q+D)Z AUX)
    Blend: CC-PVQZ-JKFIT
  @DF-RKS Final Energy:  -548.67260410156200
    Total Energy =                       -548.6726041015618875
    Molecular point group: cs

    Geometry (in Angstrom), charge = 0, multiplicity = 1:

       Center              X                  Y                   Z               Mass
    ------------   -----------------  -----------------  -----------------  -----------------
         S            0.000000000000    -0.000305606820    -0.361143613184    31.972071174400
         O            0.000000000000     1.229274443743     0.361122597705    15.994914619570
         O            0.000000000000    -1.228663569398     0.360763675496    15.994914619570

  Charge       = 0
  Multiplicity = 1
  Basis Set: CC-PV(Q+D)Z
    Blend: CC-PV(Q+D)Z
  Basis Set: (CC-PV(Q+D)Z AUX)
    Blend: CC-PVQZ-JKFIT

    Orbital Energies [Eh]
    ---------------------

    Doubly Occupied:

       1Ap   -89.386338     2Ap   -19.388284     3Ap   -19.388107
       4Ap    -8.280700     1App   -6.192018     5Ap    -6.188695
       6Ap    -6.185596     7Ap    -1.282681     8Ap    -1.187421
       9Ap    -0.754692     2App   -0.610679    10Ap    -0.610672
      11Ap    -0.606610     3App   -0.481468    12Ap    -0.471168
      13Ap    -0.439290

  @DF-RKS Final Energy:  -548.67260343963176

   => Energetics <=

    Nuclear Repulsion Energy =            108.8181135730046094
    One-Electron Energy =                -971.7804426247089395
    Two-Electron Energy =                 346.5535622052951226
    DFT Exchange-Correlation Energy =     -32.3963755467956531
    Empirical Dispersion Energy =           0.0000000000000000
    VV10 Nonlocal Energy =                  0.1325389535730129
    Total Energy =                       -548.6726034396318710

  Dipole Moment: [D]
     X:     0.0000      Y:    -0.0063      Z:    -1.7207     Total:     1.7207

  Vibration                       7                   8                   9
  Freq [cm^-1]                 533.4031           1236.3981           1442.3613
  Irrep                           A1                  A1                  B2
  Reduced mass [u]             18.6465             17.9260             20.3278
  Force const [mDyne/A]         3.1258             16.1455             24.9165

  ==> Thermochemistry Components <==

  Entropy, S
    Electronic S            0.000 [cal/(mol K)]        0.000 [J/(mol K)]       0.00000000 [mEh/K] (multiplicity = 1)
    Translational S        38.386 [cal/(mol K)]      160.607 [J/(mol K)]       0.06117186 [mEh/K] (mol. weight = 63.9619 [u], P = 101325.00 [Pa])
    Rotational S           20.191 [cal/(mol K)]       84.479 [J/(mol K)]       0.03217628 [mEh/K] (symmetry no. = 2)
    Vibrational S           0.630 [cal/(mol K)]        2.637 [J/(mol K)]       0.00100436 [mEh/K]
  Total S                  59.207 [cal/(mol K)]      247.722 [J/(mol K)]       0.09435250 [mEh/K]
  Correction S              0.000 [cal/(mol K)]        0.000 [J/(mol K)]       0.00000000 [mEh/K]

  Constant volume heat capacity, Cv
    Electronic Cv           0.000 [cal/(mol K)]        0.000 [J/(mol K)]       0.00000000 [mEh/K]
    Translational Cv        2.981 [cal/(mol K)]       12.472 [J/(mol K)]       0.00475022 [mEh/K]
    Rotational Cv           2.981 [cal/(mol K)]       12.472 [J/(mol K)]       0.00475022 [mEh/K]
    Vibrational Cv          1.450 [cal/(mol K)]        6.066 [J/(mol K)]       0.00231056 [mEh/K]
  Total Cv                  7.412 [cal/(mol K)]       31.010 [J/(mol K)]       0.01181099 [mEh/K]
  Correction Cv             0.000 [cal/(mol K)]        0.000 [J/(mol K)]       0.00000000 [mEh/K]

  Constant pressure heat capacity, Cp
    Electronic Cp           0.000 [cal/(mol K)]        0.000 [J/(mol K)]       0.00000000 [mEh/K]
    Translational Cp        4.968 [cal/(mol K)]       20.786 [J/(mol K)]       0.00791703 [mEh/K]
    Rotational Cp           2.981 [cal/(mol K)]       12.472 [J/(mol K)]       0.00475022 [mEh/K]
    Vibrational Cp          1.450 [cal/(mol K)]        6.066 [J/(mol K)]       0.00231056 [mEh/K]
  Total Cp                  9.399 [cal/(mol K)]       39.324 [J/(mol K)]       0.01497780 [mEh/K]
  Correction Cp             0.000 [cal/(mol K)]        0.000 [J/(mol K)]       0.00000000 [mEh/K]

  ==> Thermochemistry Energy Analysis <==

  Raw electronic energy, E0
  Total E0, Electronic energy at well bottom at 0 [K]                 -548.67260442 [Eh]

  Zero-point energy, ZPE_vib = Sum_i nu_i / 2
    Electronic ZPE          0.000 [kcal/mol]        0.000 [kJ/mol]       0.00000000 [Eh]
    Translational ZPE       0.000 [kcal/mol]        0.000 [kJ/mol]       0.00000000 [Eh]
    Rotational ZPE          0.000 [kcal/mol]        0.000 [kJ/mol]       0.00000000 [Eh]
    Vibrational ZPE         4.592 [kcal/mol]       19.213 [kJ/mol]       0.00731784 [Eh]        1606.081 [cm^-1]
  Correction ZPE            4.592 [kcal/mol]       19.213 [kJ/mol]       0.00731784 [Eh]        1606.081 [cm^-1]
  Total ZPE, Electronic energy at 0 [K]                               -548.66528658 [Eh]

  Thermal Energy, E (includes ZPE)
    Electronic E            0.000 [kcal/mol]        0.000 [kJ/mol]       0.00000000 [Eh]
    Translational E         0.889 [kcal/mol]        3.718 [kJ/mol]       0.00141628 [Eh]
    Rotational E            0.889 [kcal/mol]        3.718 [kJ/mol]       0.00141628 [Eh]
    Vibrational E           4.731 [kcal/mol]       19.794 [kJ/mol]       0.00753911 [Eh]
  Correction E              6.508 [kcal/mol]       27.231 [kJ/mol]       0.01037166 [Eh]
  Total E, Electronic energy at  298.15 [K]                           -548.66223276 [Eh]

  Enthalpy, H_trans = E_trans + k_B * T
    Electronic H            0.000 [kcal/mol]        0.000 [kJ/mol]       0.00000000 [Eh]
    Translational H         1.481 [kcal/mol]        6.197 [kJ/mol]       0.00236046 [Eh]
    Rotational H            0.889 [kcal/mol]        3.718 [kJ/mol]       0.00141628 [Eh]
    Vibrational H           4.731 [kcal/mol]       19.794 [kJ/mol]       0.00753911 [Eh]
  Correction H              7.101 [kcal/mol]       29.710 [kJ/mol]       0.01131585 [Eh]
  Total H, Enthalpy at  298.15 [K]                                    -548.66128858 [Eh]

  Gibbs free energy, G = H - T * S
    Electronic G            0.000 [kcal/mol]        0.000 [kJ/mol]       0.00000000 [Eh]
    Translational G        -9.964 [kcal/mol]      -41.687 [kJ/mol]      -0.01587793 [Eh]
    Rotational G           -5.131 [kcal/mol]      -21.469 [kJ/mol]      -0.00817708 [Eh]
    Vibrational G           4.543 [kcal/mol]       19.008 [kJ/mol]       0.00723966 [Eh]
  Correction G            -10.552 [kcal/mol]      -44.149 [kJ/mol]      -0.01681535 [Eh]
  Total G, Free enthalpy at  298.15 [K]                               -548.68941977 [Eh]

*** Psi4 exiting successfully. Buy a developer a beer!
