                               Psi4 1.3.2 release

  ==> Input File <==

--------------------------------------------------------------------------
memory 144 GB

molecule {
0 1
C -0.0479167327 0.6682939561 0.0000000000
H -1.0907101856 0.9776732069 0.0000000000
H 0.4344161461 1.0815239129 0.8898543791
H 0.4344161461 1.0815239129 -0.8898543791
O -0.0410920225 -0.7509554452 0.0000000000
H 0.8712936485 -1.0420305436 0.0000000000
}

set dynamic_level 1
set basis cc-pV(Q+d)Z

optimize("wB97M-V")
frequencies("wB97M-V")
--------------------------------------------------------------------------

    Molecular point group: cs
  Charge       = 0
  Multiplicity = 1
  Basis Set: CC-PV(Q+D)Z
    Blend: CC-PV(Q+D)Z
  Basis Set: (CC-PV(Q+D)Z AUX)
    Blend: CC-PVQZ-JKFIT
  @DF-RKS Final Energy:  -115.72252270149578
    Total Energy =                       -115.7225227014957767
    Molecular point group: cs
  Basis Set: CC-PV(Q+D)Z
    Blend: CC-PV(Q+D)Z
  Basis Set: (CC-PV(Q+D)Z AUX)
    Blend: CC-PVQZ-JKFIT
  @DF-RKS Final Energy:  -115.72252263858248
    Total Energy =                       -115.7225226385824755
  Basis Set: CC-PV(Q+D)Z
    Blend: CC-PV(Q+D)Z
  Basis Set: (CC-PV(Q+D)Z AUX)
    Blend: CC-PVQZ-JKFIT
  @DF-RKS Final Energy:  -115.72251889363308
    Total Energy =                       -115.7225188936330653
  Basis Set: CC-PV(Q+D)Z
    Blend: CC-PV(Q+D)Z
  Basis Set: (CC-PV(Q+D)Z AUX)
    Blend: CC-PVQZ-JKFIT
  @DF-RKS Final Energy:  -115.72252385343876
    Total Energy =                       -115.7225238534387444
  @DF-RKS Final Energy:  -115.72251996052918
    Total Energy =                       -115.7225199605291834
  @DF-RKS Final Energy:  -115.72251472119783
    Total Energy =                       -115.7225147211978395
  @DF-RKS Final Energy:  -115.72252332532803
    Total Energy =                       -115.7225233253280265
  @DF-RKS Final Energy:  -115.72252080314529
    Total Energy =                       -115.7225208031452865
  @DF-RKS Final Energy:  -115.72252231286309
    Total Energy =                       -115.7225223128630915
  @DF-RKS Final Energy:  -115.72252637716113
    Total Energy =                       -115.7225263771611310
  @DF-RKS Final Energy:  -115.72251664262586
    Total Energy =                       -115.7225166426258625
  @DF-RKS Final Energy:  -115.72252012286953
    Total Energy =                       -115.7225201228695255
  @DF-RKS Final Energy:  -115.72252316884445
    Total Energy =                       -115.7225231688444467
  @DF-RKS Final Energy:  -115.72252349101234
    Total Energy =                       -115.7225234910123390
  @DF-RKS Final Energy:  -115.72251551043274
    Total Energy =                       -115.7225155104327428
  @DF-RKS Final Energy:  -115.72251611704348
    Total Energy =                       -115.7225161170434831
  @DF-RKS Final Energy:  -115.72251507216180
    Total Energy =                       -115.7225150721617979
  @DF-RKS Final Energy:  -115.72253400404018
    Total Energy =                       -115.7225340040401846
  @DF-RKS Final Energy:  -115.72253159985205
    Total Energy =                       -115.7225315998520614
  @DF-RKS Final Energy:  -115.72253252871157
    Total Energy =                       -115.7225325287115680
  **** Optimization is complete! (in 3 steps) ****
    Final optimized geometry and variables:
  @DF-RKS Final Energy:  -115.72252734471908
    Total Energy =                       -115.7225273447190972
  @DF-RKS Final Energy:  -115.72252657985632
    Total Energy =                       -115.7225265798563214
  @DF-RKS Final Energy:  -115.72252526708097
    Total Energy =                       -115.7225252670809681
  @DF-RKS Final Energy:  -115.72252430066997
    Total Energy =                       -115.7225243006699742
  @DF-RKS Final Energy:  -115.72253323376560
    Total Energy =                       -115.7225332337656027
  @DF-RKS Final Energy:  -115.72253377378462
    Total Energy =                       -115.7225337737846189
  @DF-RKS Final Energy:  -115.72253412229696
    Total Energy =                       -115.7225341222969632
  @DF-RKS Final Energy:  -115.72253308646206
    Total Energy =                       -115.7225330864620929
  @DF-RKS Final Energy:  -115.72253058140049
    Total Energy =                       -115.7225305814005054
  @DF-RKS Final Energy:  -115.72253058155474
    Total Energy =                       -115.7225305815547500
  @DF-RKS Final Energy:  -115.72253405940931
    Total Energy =                       -115.7225340594093126
  @DF-RKS Final Energy:  -115.72253405933590
    Total Energy =                       -115.7225340593358993
  @DF-RKS Final Energy:  -115.72253464981847
    Total Energy =                       -115.7225346498184706
  @DF-RKS Final Energy:  -115.72253464950050
    Total Energy =                       -115.7225346495005027
  @DF-RKS Final Energy:  -115.72253384845038
    Total Energy =                       -115.7225338484503823
  @DF-RKS Final Energy:  -115.72253384843310
    Total Energy =                       -115.7225338484330877
  Basis Set: CC-PV(Q+D)Z
    Blend: CC-PV(Q+D)Z
  Basis Set: (CC-PV(Q+D)Z AUX)
    Blend: CC-PVQZ-JKFIT
  @DF-RKS Final Energy:  -115.72253303662178
    Total Energy =                       -115.7225330366217833
  Basis Set: CC-PV(Q+D)Z
    Blend: CC-PV(Q+D)Z
  Basis Set: (CC-PV(Q+D)Z AUX)
    Blend: CC-PVQZ-JKFIT
  @DF-RKS Final Energy:  -115.72253303649637
    Total Energy =                       -115.7225330364963725
  Multiplicity = 1
  Basis Set: CC-PV(Q+D)Z
    Blend: CC-PV(Q+D)Z
  Basis Set: (CC-PV(Q+D)Z AUX)
    Blend: CC-PVQZ-JKFIT
  @DF-RKS Final Energy:  -115.72252984402400
    Total Energy =                       -115.7225298440239811
    Molecular point group: c1

    Geometry (in Angstrom), charge = 0, multiplicity = 1:

       Center              X                  Y                   Z               Mass
    ------------   -----------------  -----------------  -----------------  -----------------
         C           -0.030947212488     0.725677063172     0.000000000000    12.000000000000
         H           -1.072321858881     1.035139433988     0.000000000000     1.007825032230
         H            0.448176679140     1.139394186012     0.887597192477     1.007825032230
         H            0.450444268885     1.143204747689    -0.889633304053     1.007825032230
         O           -0.021819166803    -0.691183559202     0.000201370711    15.994914619570
         H            0.888470079012    -0.988666174839    -0.001159787742     1.007825032230

  Charge       = 0
  Multiplicity = 1
  Basis Set: CC-PV(Q+D)Z
    Blend: CC-PV(Q+D)Z
  Basis Set: (CC-PV(Q+D)Z AUX)
    Blend: CC-PVQZ-JKFIT

    Orbital Energies [Eh]
    ---------------------

    Doubly Occupied:

       1A    -19.326916     2A    -10.379170     3A     -1.147026
       4A     -0.801777     5A     -0.616331     6A     -0.547512
       7A     -0.530980     8A     -0.440921     9A     -0.381730

  @DF-RKS Final Energy:  -115.72252984421723

   => Energetics <=

    Nuclear Repulsion Energy =             40.3969242508343385
    One-Electron Energy =                -237.1138814768094676
    Two-Electron Energy =                  91.8325360071889349
    DFT Exchange-Correlation Energy =     -10.9117110039626830
    Empirical Dispersion Energy =           0.0000000000000000
    VV10 Nonlocal Energy =                  0.0736023785316581
    Total Energy =                       -115.7225298442172203

  Dipole Moment: [D]
     X:     1.3500      Y:     0.9252      Z:     0.0007     Total:     1.6367

  Vibration                       7                   8                   9
  Freq [cm^-1]                 285.4531           1062.7069           1093.2969
  Irrep                          App                  Ap                  Ap
  Reduced mass [u]              1.0703              1.4604              2.6798
  Force const [mDyne/A]         0.0514              0.9718              1.8873

  Vibration                       10                  11                  12
  Freq [cm^-1]                1172.1718           1372.6680           1477.3973
  Irrep                          App                  Ap                  Ap
  Reduced mass [u]              1.2720              1.2882              1.1409
  Force const [mDyne/A]         1.0297              1.4300              1.4672

  Vibration                       13                  14                  15
  Freq [cm^-1]                1489.8642           1506.4995           3019.6297
  Irrep                          App                  Ap                  Ap
  Reduced mass [u]              1.0452              1.0442              1.0358
  Force const [mDyne/A]         1.3670              1.3963              5.5649

  Vibration                       16                  17                  18
  Freq [cm^-1]                3066.9863           3133.8404           3876.8033
  Irrep                          App                  Ap                  Ap
  Reduced mass [u]              1.1054              1.0978              1.0666
  Force const [mDyne/A]         6.1262              6.3525              9.4449

  ==> Thermochemistry Components <==

  Entropy, S
    Electronic S            0.000 [cal/(mol K)]        0.000 [J/(mol K)]       0.00000000 [mEh/K] (multiplicity = 1)
    Translational S        36.324 [cal/(mol K)]      151.980 [J/(mol K)]       0.05788598 [mEh/K] (mol. weight = 32.0262 [u], P = 101325.00 [Pa])
    Rotational S           18.970 [cal/(mol K)]       79.371 [J/(mol K)]       0.03023095 [mEh/K] (symmetry no. = 1)
    Vibrational S           1.741 [cal/(mol K)]        7.283 [J/(mol K)]       0.00277392 [mEh/K]
  Total S                  57.035 [cal/(mol K)]      238.634 [J/(mol K)]       0.09089084 [mEh/K]
  Correction S              0.000 [cal/(mol K)]        0.000 [J/(mol K)]       0.00000000 [mEh/K]

  Constant volume heat capacity, Cv
    Electronic Cv           0.000 [cal/(mol K)]        0.000 [J/(mol K)]       0.00000000 [mEh/K]
    Translational Cv        2.981 [cal/(mol K)]       12.472 [J/(mol K)]       0.00475022 [mEh/K]
    Rotational Cv           2.981 [cal/(mol K)]       12.472 [J/(mol K)]       0.00475022 [mEh/K]
    Vibrational Cv          2.872 [cal/(mol K)]       12.017 [J/(mol K)]       0.00457701 [mEh/K]
  Total Cv                  8.834 [cal/(mol K)]       36.960 [J/(mol K)]       0.01407744 [mEh/K]
  Correction Cv             0.000 [cal/(mol K)]        0.000 [J/(mol K)]       0.00000000 [mEh/K]

  Constant pressure heat capacity, Cp
    Electronic Cp           0.000 [cal/(mol K)]        0.000 [J/(mol K)]       0.00000000 [mEh/K]
    Translational Cp        4.968 [cal/(mol K)]       20.786 [J/(mol K)]       0.00791703 [mEh/K]
    Rotational Cp           2.981 [cal/(mol K)]       12.472 [J/(mol K)]       0.00475022 [mEh/K]
    Vibrational Cp          2.872 [cal/(mol K)]       12.017 [J/(mol K)]       0.00457701 [mEh/K]
  Total Cp                 10.821 [cal/(mol K)]       45.275 [J/(mol K)]       0.01724425 [mEh/K]
  Correction Cp             0.000 [cal/(mol K)]        0.000 [J/(mol K)]       0.00000000 [mEh/K]

  ==> Thermochemistry Energy Analysis <==

  Raw electronic energy, E0
  Total E0, Electronic energy at well bottom at 0 [K]                 -115.72253510 [Eh]

  Zero-point energy, ZPE_vib = Sum_i nu_i / 2
    Electronic ZPE          0.000 [kcal/mol]        0.000 [kJ/mol]       0.00000000 [Eh]
    Translational ZPE       0.000 [kcal/mol]        0.000 [kJ/mol]       0.00000000 [Eh]
    Rotational ZPE          0.000 [kcal/mol]        0.000 [kJ/mol]       0.00000000 [Eh]
    Vibrational ZPE        32.247 [kcal/mol]      134.923 [kJ/mol]       0.05138935 [Eh]       11278.659 [cm^-1]
  Correction ZPE           32.247 [kcal/mol]      134.923 [kJ/mol]       0.05138935 [Eh]       11278.659 [cm^-1]
  Total ZPE, Electronic energy at 0 [K]                               -115.67114575 [Eh]

  Thermal Energy, E (includes ZPE)
    Electronic E            0.000 [kcal/mol]        0.000 [kJ/mol]       0.00000000 [Eh]
    Translational E         0.889 [kcal/mol]        3.718 [kJ/mol]       0.00141628 [Eh]
    Rotational E            0.889 [kcal/mol]        3.718 [kJ/mol]       0.00141628 [Eh]
    Vibrational E          32.583 [kcal/mol]      136.329 [kJ/mol]       0.05192484 [Eh]
  Correction E             34.361 [kcal/mol]      143.766 [kJ/mol]       0.05475740 [Eh]
  Total E, Electronic energy at  298.15 [K]                           -115.66777770 [Eh]

  Enthalpy, H_trans = E_trans + k_B * T
    Electronic H            0.000 [kcal/mol]        0.000 [kJ/mol]       0.00000000 [Eh]
    Translational H         1.481 [kcal/mol]        6.197 [kJ/mol]       0.00236046 [Eh]
    Rotational H            0.889 [kcal/mol]        3.718 [kJ/mol]       0.00141628 [Eh]
    Vibrational H          32.583 [kcal/mol]      136.329 [kJ/mol]       0.05192484 [Eh]
  Correction H             34.953 [kcal/mol]      146.244 [kJ/mol]       0.05570158 [Eh]
  Total H, Enthalpy at  298.15 [K]                                    -115.66683352 [Eh]

  Gibbs free energy, G = H - T * S
    Electronic G            0.000 [kcal/mol]        0.000 [kJ/mol]       0.00000000 [Eh]
    Translational G        -9.349 [kcal/mol]      -39.115 [kJ/mol]      -0.01489824 [Eh]
    Rotational G           -4.767 [kcal/mol]      -19.946 [kJ/mol]      -0.00759708 [Eh]
    Vibrational G          32.064 [kcal/mol]      134.157 [kJ/mol]       0.05109780 [Eh]
  Correction G             17.948 [kcal/mol]       75.096 [kJ/mol]       0.02860248 [Eh]
  Total G, Free enthalpy at  298.15 [K]                               -115.69393262 [Eh]

*** Psi4 exiting successfully. Buy a developer a beer!
