                               Psi4 1.3.2 release

  ==> Input File <==

--------------------------------------------------------------------------
memory 144 GB

molecule {
0 3
S 0.0000000000 0.0000000000 0.0000000000
S 0.0000000000 0.0000000000 1.8968845900
}

set reference uks
set dynamic_level 1
set basis cc-pV(Q+d)Z

optimize("wB97M-V")
frequencies("wB97M-V")
--------------------------------------------------------------------------

    Molecular point group: d2h
  Charge       = 0
  Multiplicity = 3
  Basis Set: CC-PV(Q+D)Z
    Blend: CC-PV(Q+D)Z
  Basis Set: (CC-PV(Q+D)Z AUX)
    Blend: CC-PVQZ-JKFIT
  @DF-UKS Final Energy:  -796.37028574425426
    Total Energy =                       -796.3702857442541472
    Molecular point group: d2h
  Basis Set: CC-PV(Q+D)Z
    Blend: CC-PV(Q+D)Z
  Basis Set: (CC-PV(Q+D)Z AUX)
    Blend: CC-PVQZ-JKFIT
  @DF-UKS Final Energy:  -796.37027318871696
    Total Energy =                       -796.3702731887169648
  Basis Set: CC-PV(Q+D)Z
    Blend: CC-PV(Q+D)Z
  Basis Set: (CC-PV(Q+D)Z AUX)
    Blend: CC-PVQZ-JKFIT
  @DF-UKS Final Energy:  -796.37029778532974
    Total Energy =                       -796.3702977853296261
  Basis Set: CC-PV(Q+D)Z
    Blend: CC-PV(Q+D)Z
  Basis Set: (CC-PV(Q+D)Z AUX)
    Blend: CC-PVQZ-JKFIT
  @DF-UKS Final Energy:  -796.37041486268890
    Total Energy =                       -796.3704148626890174
  @DF-UKS Final Energy:  -796.37041063166146
    Total Energy =                       -796.3704106316613434
  @DF-UKS Final Energy:  -796.37041855264215
    Total Energy =                       -796.3704185526420360
  @DF-UKS Final Energy:  -796.37042924253569
    Total Energy =                       -796.3704292425356925
  @DF-UKS Final Energy:  -796.37042911451795
    Total Energy =                       -796.3704291145180605
  @DF-UKS Final Energy:  -796.37042881740717
    Total Energy =                       -796.3704288174070598
  **** Optimization is complete! (in 3 steps) ****
    Final optimized geometry and variables:
  @DF-UKS Final Energy:  -796.37042924220827
    Total Energy =                       -796.3704292422081608
  @DF-UKS Final Energy:  -796.37042911451772
    Total Energy =                       -796.3704291145176057
  Basis Set: CC-PV(Q+D)Z
    Blend: CC-PV(Q+D)Z
  Basis Set: (CC-PV(Q+D)Z AUX)
    Blend: CC-PVQZ-JKFIT
  @DF-UKS Final Energy:  -796.37042881740649
    Total Energy =                       -796.3704288174066050
  Basis Set: CC-PV(Q+D)Z
    Blend: CC-PV(Q+D)Z
  Basis Set: (CC-PV(Q+D)Z AUX)
    Blend: CC-PVQZ-JKFIT
  @DF-UKS Final Energy:  -796.37042924220850
    Total Energy =                       -796.3704292422085018
  Multiplicity = 3
  Basis Set: CC-PV(Q+D)Z
    Blend: CC-PV(Q+D)Z
  Basis Set: (CC-PV(Q+D)Z AUX)
    Blend: CC-PVQZ-JKFIT
  @DF-UKS Final Energy:  -796.37042911451783
    Total Energy =                       -796.3704291145179468
    Molecular point group: d2h

    Geometry (in Angstrom), charge = 0, multiplicity = 3:

       Center              X                  Y                   Z               Mass
    ------------   -----------------  -----------------  -----------------  -----------------
         S            0.000000000000     0.000000000000    -0.940393764164    31.972071174400
         S            0.000000000000     0.000000000000     0.940393764164    31.972071174400

  Charge       = 0
  Multiplicity = 3
  Basis Set: CC-PV(Q+D)Z
    Blend: CC-PV(Q+D)Z
  Basis Set: (CC-PV(Q+D)Z AUX)
    Blend: CC-PVQZ-JKFIT

    Orbital Energies [Eh]
    ---------------------

    Alpha Occupied:

       1B1u  -89.258001     1Ag   -89.257999     2Ag    -8.169847
       2B1u   -8.169673     1B2u   -6.079339     1B3u   -6.079339
       1B3g   -6.079291     1B2g   -6.079291     3Ag    -6.077535
       3B1u   -6.076717     4Ag    -0.962014     4B1u   -0.743698
       5Ag    -0.495397     2B3u   -0.479644     2B2u   -0.479644
       2B2g   -0.330687     2B3g   -0.330687

    Alpha Virtual:

       5B1u    0.064824     6Ag     0.193464     6B1u    0.202141
       3B2u    0.222885     3B3u    0.222885     7Ag     0.247143
       8Ag     0.263301     1B1g    0.263301     3B2g    0.294115
       3B3g    0.294115     4B3u    0.299821     4B2u    0.299821
       7B1u    0.397249     1Au     0.397249     8B1u    0.464439
       9Ag     0.540226     4B3g    0.592340     4B2g    0.592340
       9B1u    0.711331     5B2u    0.901491     5B3u    0.901491
      10Ag     0.921154    11Ag     0.953973     2B1g    0.953983
       6B3u    1.020669     6B2u    1.020669    10B1u    1.031897
       2Au     1.031904     3B1g    1.031905    12Ag     1.031909
       5B3g    1.125757     5B2g    1.125757    13Ag     1.161440
      11B1u    1.170676     6B2g    1.177182     6B3g    1.177182
       7B3u    1.239866     7B2u    1.239866     7B2g    1.266587
       7B3g    1.266587     8B2u    1.370526     8B3u    1.370526
       3Au     1.437793    12B1u    1.437798    13B1u    1.454610
      14B1u    1.661377    14Ag     1.702348     8B3g    1.848315
       8B2g    1.848315    15Ag     2.000145    15B1u    2.384064
      16Ag     2.563658     4B1g    2.563711     9B2u    2.650924
       9B3u    2.650924    17Ag     2.683411    16B1u    2.687044
       4Au     2.687090    10B2u    2.767272    10B3u    2.767272
      18Ag     2.779154     5B1g    2.779160    11B2u    2.789409
      11B3u    2.789409     9B2g    2.852335     9B3g    2.852335
       6B1g    2.927031    19Ag     2.927068     5Au     2.997452
      17B1u    2.997489    20Ag     3.076819    12B2u    3.117338
      12B3u    3.117338    10B3g    3.138361    10B2g    3.138361
       7B1g    3.209636    21Ag     3.209653    11B3g    3.249925
      11B2g    3.249925    18B1u    3.254852     6Au     3.280835
      19B1u    3.280849    12B3g    3.439221    12B2g    3.439221
      20B1u    3.510377    13B2u    3.680142    13B3u    3.680142
       7Au     3.752199    21B1u    3.752201    22Ag     3.890681
      13B3g    4.496882    13B2g    4.496882    22B1u    4.497171
      14B2u    5.192251    14B3u    5.192251    14B3g    5.333486
      14B2g    5.333486    23Ag     5.879068    23B1u    6.648407
       8B1g    8.655972    24Ag     8.656030     8Au     8.716084
      24B1u    8.716139    15B2u    8.728874    15B3u    8.728874
      15B3g    8.968102    15B2g    8.968102    25B1u    9.074963
      25Ag     9.140245    26Ag    16.986644    26B1u   19.299971

    Beta Occupied:

       1Ag   -89.251818     1B1u  -89.251818     2Ag    -8.163666
       2B1u   -8.163418     3Ag    -6.073683     3B1u   -6.072861
       1B2u   -6.066016     1B3u   -6.066016     1B3g   -6.065951
       1B2g   -6.065951     4Ag    -0.936991     4B1u   -0.687864
       5Ag    -0.469582     2B3u   -0.424375     2B2u   -0.424375

    Beta Virtual:

       2B2g   -0.058694     2B3g   -0.058694     5B1u    0.075481
       6Ag     0.199117     6B1u    0.213852     3B2u    0.226359
       3B3u    0.226359     7Ag     0.247810     8Ag     0.281446
       1B1g    0.281447     3B2g    0.298572     3B3g    0.298572
       4B3u    0.334893     4B2u    0.334893     7B1u    0.431367
       1Au     0.431369     8B1u    0.474901     9Ag     0.558046
       4B3g    0.609268     4B2g    0.609268     9B1u    0.717427
       5B2u    0.909982     5B3u    0.909982    10Ag     0.926136
      11Ag     0.973982     2B1g    0.973988     6B3u    1.043286
       6B2u    1.043286    12Ag     1.057692     3B1g    1.057696
      10B1u    1.058738     2Au     1.058749     5B3g    1.144134
       5B2g    1.144134    13Ag     1.179432    11B1u    1.188498
       6B2g    1.208050     6B3g    1.208050     7B3u    1.283670
       7B2u    1.283670     7B2g    1.308685     7B3g    1.308685
       8B2u    1.389932     8B3u    1.389932    12B1u    1.461110
       3Au     1.461122    13B1u    1.466225    14B1u    1.687021
      14Ag     1.747093     8B3g    1.867236     8B2g    1.867236
      15Ag     2.010816    15B1u    2.423507    16Ag     2.613634
       4B1g    2.613644     9B2u    2.676424     9B3u    2.676424
      17Ag     2.712095     4Au     2.743939    16B1u    2.743943
      10B2u    2.791863    10B3u    2.791863     5B1g    2.817936
      18Ag     2.817938    11B2u    2.839119    11B3u    2.839119
       9B2g    2.883611     9B3g    2.883611     6B1g    3.002917
      19Ag     3.002941     5Au     3.075348    17B1u    3.075374
      20Ag     3.096389    12B2u    3.192365    12B3u    3.192365
      10B3g    3.194484    10B2g    3.194484    21Ag     3.260791
       7B1g    3.260796    18B1u    3.272888    11B3g    3.324346
      11B2g    3.324346    19B1u    3.326462     6Au     3.326477
      12B3g    3.474682    12B2g    3.474682    20B1u    3.544737
      13B2u    3.718993    13B3u    3.718993    21B1u    3.795035
       7Au     3.795043    22Ag     3.907490    22B1u    4.506738
      13B3g    4.520522    13B2g    4.520522    14B2u    5.246093
      14B3u    5.246093    14B3g    5.387562    14B2g    5.387562
      23Ag     5.885710    23B1u    6.654812     8B1g    8.686738
      24Ag     8.686808    15B2u    8.743310    15B3u    8.743310
       8Au     8.748481    24B1u    8.748551    15B3g    8.987597
      15B2g    8.987597    25B1u    9.090089    25Ag     9.156283
      26Ag    16.999750    26B1u   19.310948

    Final Occupation by Irrep:
             Ag   B1g   B2g   B3g    Au   B1u   B2u   B3u
    DOCC [     5,    0,    1,    1,    0,    4,    2,    2 ]
    SOCC [     0,    0,    1,    1,    0,    0,    0,    0 ]

  @DF-UKS Final Energy:  -796.37042881740683

   => Energetics <=

    Nuclear Repulsion Energy =             72.0280009789107680
    One-Electron Energy =               -1242.6926346031689263
    Two-Electron Energy =                 413.7392524553387148
    DFT Exchange-Correlation Energy =     -39.5786144045892740
    Empirical Dispersion Energy =           0.0000000000000000
    VV10 Nonlocal Energy =                  0.1335667561018780
    Total Energy =                       -796.3704288174068324

  UHF NO Occupations:
  HONO-2 :    2B3u 1.9979903
  HONO-1 :    2B3g 1.0000000
  HONO-0 :    2B2g 1.0000000
  LUNO+0 :    3B3u 0.0020097
  LUNO+1 :    3B2u 0.0020097
  LUNO+2 :    5B1u 0.0002708
  LUNO+3 :    6 Ag 0.0001932

Computation Completed

Properties will be evaluated at   0.000000,   0.000000,   0.000000 [a0]

Properties computed using the SCF density matrix

  Nuclear Dipole Moment: [e a0]
     X:     0.0000      Y:     0.0000      Z:     0.0000

  Electronic Dipole Moment: [e a0]
     X:     0.0000      Y:     0.0000      Z:     0.0000

  Dipole Moment: [e a0]
     X:     0.0000      Y:     0.0000      Z:     0.0000     Total:     0.0000

  Dipole Moment: [D]
     X:     0.0000      Y:     0.0000      Z:     0.0000     Total:     0.0000

*** tstop() called on bp1-compute00140.data.bp.acrc.priv at Tue Apr 27 17:19:32 2021
Module time:
	user time   =     222.50 seconds =       3.71 minutes
	system time =       8.43 seconds =       0.14 minutes
	total time  =         10 seconds =       0.17 minutes
Total time:
	user time   =    2634.40 seconds =      43.91 minutes
	system time =     106.90 seconds =       1.78 minutes
	total time  =        117 seconds =       1.95 minutes

         ----------------------------------------------------------
                                   FINDIF
                     R. A. King and Jonathon Misiewicz
         ---------------------------------------------------------

  Computing second-derivative from energies using projected,
  symmetry-adapted, cartesian coordinates.

  3 energies passed in, including the reference geometry.
    Using 3-point formula.
    Energy without displacement: -796.3704292422
    Check energies below for precision!
    0: -1 :      -796.3704291145
    0: 1  :      -796.3704288174

-------------------------------------------------------------

  ==> Harmonic Vibrational Analysis <==

  non-mass-weighted Hessian:       Symmetric? True   Hermitian? True   Lin Dep Dim?  5 (0)
  projection of translations (True) and rotations (True) removed 5 degrees of freedom (5)
  total projector:                 Symmetric? True   Hermitian? True   Lin Dep Dim?  5 (5)
  mass-weighted Hessian:           Symmetric? True   Hermitian? True   Lin Dep Dim?  5 (0)
  pre-proj  low-frequency mode:    0.0000  [cm^-1]
  pre-proj  low-frequency mode:    0.0000  [cm^-1]
  pre-proj  low-frequency mode:    0.0000  [cm^-1]
  pre-proj  low-frequency mode:    0.0000  [cm^-1]
  pre-proj  low-frequency mode:    0.0000  [cm^-1]
  pre-proj  all modes:['0.0000' '0.0000' '0.0000' '0.0000' '0.0000' '764.1831']
  projected mass-weighted Hessian: Symmetric? True   Hermitian? True   Lin Dep Dim?  5 (5)
  post-proj low-frequency mode:    0.0000i [cm^-1] (TR)
  post-proj low-frequency mode:    0.0000  [cm^-1] (TR)
  post-proj low-frequency mode:    0.0000  [cm^-1] (TR)
  post-proj low-frequency mode:    0.0000  [cm^-1] (TR)
  post-proj low-frequency mode:    0.0000  [cm^-1] (TR)
  post-proj  all modes:['0.0000i' '0.0000' '0.0000' '0.0000' '0.0000' '764.1831']

  Vibration                       6
  Freq [cm^-1]                 764.1831
  Irrep                           Ag
  Reduced mass [u]             31.9721
  Force const [mDyne/A]        11.0006
  Turning point v=0 [a0]        0.0702
  RMS dev v=0 [a0 u^1/2]        0.2807
  Char temp [K]               1099.4893
  ----------------------------------------------------------------------------------
      1   S                0.00  0.00  0.71
      2   S                0.00  0.00 -0.71

  ==> Thermochemistry Components <==

  Entropy, S
    Electronic S            2.183 [cal/(mol K)]        9.134 [J/(mol K)]       0.00347910 [mEh/K] (multiplicity = 3)
    Translational S        38.385 [cal/(mol K)]      160.603 [J/(mol K)]       0.06117054 [mEh/K] (mol. weight = 63.9441 [u], P = 101325.00 [Pa])
    Rotational S           13.616 [cal/(mol K)]       56.968 [J/(mol K)]       0.02169789 [mEh/K] (symmetry no. = 2)
    Vibrational S           0.239 [cal/(mol K)]        0.998 [J/(mol K)]       0.00038008 [mEh/K]
  Total S                  54.422 [cal/(mol K)]      227.703 [J/(mol K)]       0.08672760 [mEh/K]
  Correction S              0.000 [cal/(mol K)]        0.000 [J/(mol K)]       0.00000000 [mEh/K]

  Constant volume heat capacity, Cv
    Electronic Cv           0.000 [cal/(mol K)]        0.000 [J/(mol K)]       0.00000000 [mEh/K]
    Translational Cv        2.981 [cal/(mol K)]       12.472 [J/(mol K)]       0.00475022 [mEh/K]
    Rotational Cv           1.987 [cal/(mol K)]        8.314 [J/(mol K)]       0.00316681 [mEh/K]
    Vibrational Cv          0.712 [cal/(mol K)]        2.977 [J/(mol K)]       0.00113397 [mEh/K]
  Total Cv                  5.680 [cal/(mol K)]       23.763 [J/(mol K)]       0.00905100 [mEh/K]
  Correction Cv             0.000 [cal/(mol K)]        0.000 [J/(mol K)]       0.00000000 [mEh/K]

  Constant pressure heat capacity, Cp
    Electronic Cp           0.000 [cal/(mol K)]        0.000 [J/(mol K)]       0.00000000 [mEh/K]
    Translational Cp        4.968 [cal/(mol K)]       20.786 [J/(mol K)]       0.00791703 [mEh/K]
    Rotational Cp           1.987 [cal/(mol K)]        8.314 [J/(mol K)]       0.00316681 [mEh/K]
    Vibrational Cp          0.712 [cal/(mol K)]        2.977 [J/(mol K)]       0.00113397 [mEh/K]
  Total Cp                  7.667 [cal/(mol K)]       32.078 [J/(mol K)]       0.01221781 [mEh/K]
  Correction Cp             0.000 [cal/(mol K)]        0.000 [J/(mol K)]       0.00000000 [mEh/K]

  ==> Thermochemistry Energy Analysis <==

  Raw electronic energy, E0
  Total E0, Electronic energy at well bottom at 0 [K]                 -796.37042924 [Eh]

  Zero-point energy, ZPE_vib = Sum_i nu_i / 2
    Electronic ZPE          0.000 [kcal/mol]        0.000 [kJ/mol]       0.00000000 [Eh]
    Translational ZPE       0.000 [kcal/mol]        0.000 [kJ/mol]       0.00000000 [Eh]
    Rotational ZPE          0.000 [kcal/mol]        0.000 [kJ/mol]       0.00000000 [Eh]
    Vibrational ZPE         1.092 [kcal/mol]        4.571 [kJ/mol]       0.00174094 [Eh]         382.092 [cm^-1]
  Correction ZPE            1.092 [kcal/mol]        4.571 [kJ/mol]       0.00174094 [Eh]         382.092 [cm^-1]
  Total ZPE, Electronic energy at 0 [K]                               -796.36868831 [Eh]

  Thermal Energy, E (includes ZPE)
    Electronic E            0.000 [kcal/mol]        0.000 [kJ/mol]       0.00000000 [Eh]
    Translational E         0.889 [kcal/mol]        3.718 [kJ/mol]       0.00141628 [Eh]
    Rotational E            0.592 [kcal/mol]        2.479 [kJ/mol]       0.00094418 [Eh]
    Vibrational E           1.149 [kcal/mol]        4.806 [kJ/mol]       0.00183032 [Eh]
  Correction E              2.630 [kcal/mol]       11.003 [kJ/mol]       0.00419078 [Eh]
  Total E, Electronic energy at  298.15 [K]                           -796.36623846 [Eh]

  Enthalpy, H_trans = E_trans + k_B * T
    Electronic H            0.000 [kcal/mol]        0.000 [kJ/mol]       0.00000000 [Eh]
    Translational H         1.481 [kcal/mol]        6.197 [kJ/mol]       0.00236046 [Eh]
    Rotational H            0.592 [kcal/mol]        2.479 [kJ/mol]       0.00094418 [Eh]
    Vibrational H           1.149 [kcal/mol]        4.806 [kJ/mol]       0.00183032 [Eh]
  Correction H              3.222 [kcal/mol]       13.482 [kJ/mol]       0.00513497 [Eh]
  Total H, Enthalpy at  298.15 [K]                                    -796.36529427 [Eh]

  Gibbs free energy, G = H - T * S
    Electronic G           -0.651 [kcal/mol]       -2.723 [kJ/mol]      -0.00103729 [Eh]
    Translational G        -9.963 [kcal/mol]      -41.686 [kJ/mol]      -0.01587754 [Eh]
    Rotational G           -3.467 [kcal/mol]      -14.506 [kJ/mol]      -0.00552504 [Eh]
    Vibrational G           1.077 [kcal/mol]        4.508 [kJ/mol]       0.00171700 [Eh]
  Correction G            -13.004 [kcal/mol]      -54.408 [kJ/mol]      -0.02072286 [Eh]
  Total G, Free enthalpy at  298.15 [K]                               -796.39115211 [Eh]

    Psi4 stopped on: Tuesday, 27 April 2021 05:19PM
    Psi4 wall time for execution: 0:01:57.44

*** Psi4 exiting successfully. Buy a developer a beer!
