                               Psi4 1.3.2 release

  ==> Input File <==

--------------------------------------------------------------------------
memory 144 GB

molecule {
0 3
S 0.0000000000 0.0000000000 0.0000000000
O 0.0000000000 0.0000000000 1.4862145500
}

set reference uks
set dynamic_level 1
set basis cc-pV(Q+d)Z

optimize("wB97M-V")
frequencies("wB97M-V")
--------------------------------------------------------------------------

    Molecular point group: c2v
  Charge       = 0
  Multiplicity = 3
  Basis Set: CC-PV(Q+D)Z
    Blend: CC-PV(Q+D)Z
  Basis Set: (CC-PV(Q+D)Z AUX)
    Blend: CC-PVQZ-JKFIT
  @DF-UKS Final Energy:  -473.38307436514276
    Total Energy =                       -473.3830743651427042
    Molecular point group: c2v
  Basis Set: CC-PV(Q+D)Z
    Blend: CC-PV(Q+D)Z
  Basis Set: (CC-PV(Q+D)Z AUX)
    Blend: CC-PVQZ-JKFIT
  @DF-UKS Final Energy:  -473.38305815528236
    Total Energy =                       -473.3830581552824128
  Basis Set: CC-PV(Q+D)Z
    Blend: CC-PV(Q+D)Z
  Basis Set: (CC-PV(Q+D)Z AUX)
    Blend: CC-PVQZ-JKFIT
  @DF-UKS Final Energy:  -473.38308926072256
    Total Energy =                       -473.3830892607226701
  Basis Set: CC-PV(Q+D)Z
    Blend: CC-PV(Q+D)Z
  Basis Set: (CC-PV(Q+D)Z AUX)
    Blend: CC-PVQZ-JKFIT
  @DF-UKS Final Energy:  -473.38315688479059
    Total Energy =                       -473.3831568847906510
  @DF-UKS Final Energy:  -473.38315156061776
    Total Energy =                       -473.3831515606177049
  @DF-UKS Final Energy:  -473.38316084313311
    Total Energy =                       -473.3831608431331688
  @DF-UKS Final Energy:  -473.38316472800062
    Total Energy =                       -473.3831647280007360
  @DF-UKS Final Energy:  -473.38316416188394
    Total Energy =                       -473.3831641618839967
  @DF-UKS Final Energy:  -473.38316390647418
    Total Energy =                       -473.3831639064740671
  **** Optimization is complete! (in 3 steps) ****
    Final optimized geometry and variables:
  @DF-UKS Final Energy:  -473.38316472800057
    Total Energy =                       -473.3831647280005086
  @DF-UKS Final Energy:  -473.38316416162826
    Total Energy =                       -473.3831641616282582
  Basis Set: CC-PV(Q+D)Z
    Blend: CC-PV(Q+D)Z
  Basis Set: (CC-PV(Q+D)Z AUX)
    Blend: CC-PVQZ-JKFIT
  @DF-UKS Final Energy:  -473.38316390647429
    Total Energy =                       -473.3831639064742376
  Basis Set: CC-PV(Q+D)Z
    Blend: CC-PV(Q+D)Z
  Basis Set: (CC-PV(Q+D)Z AUX)
    Blend: CC-PVQZ-JKFIT
  @DF-UKS Final Energy:  -473.38316472800057
    Total Energy =                       -473.3831647280005654
  Multiplicity = 3
  Basis Set: CC-PV(Q+D)Z
    Blend: CC-PV(Q+D)Z
  Basis Set: (CC-PV(Q+D)Z AUX)
    Blend: CC-PVQZ-JKFIT
  @DF-UKS Final Energy:  -473.38316416162843
    Total Energy =                       -473.3831641616284855
    Molecular point group: c2v

    Geometry (in Angstrom), charge = 0, multiplicity = 3:

       Center              X                  Y                   Z               Mass
    ------------   -----------------  -----------------  -----------------  -----------------
         S            0.000000000000     0.000000000000    -0.492181483794    31.972071174400
         O            0.000000000000     0.000000000000     0.983816531995    15.994914619570

  Charge       = 0
  Multiplicity = 3
  Basis Set: CC-PV(Q+D)Z
    Blend: CC-PV(Q+D)Z
  Basis Set: (CC-PV(Q+D)Z AUX)
    Blend: CC-PVQZ-JKFIT

    Orbital Energies [Eh]
    ---------------------

    Alpha Occupied:

       1A1   -89.298785     2A1   -19.404299     3A1    -8.206854
       1B1    -6.117309     1B2    -6.117309     4A1    -6.114210
       5A1    -1.221536     6A1    -0.800833     2B2    -0.568705
       2B1    -0.568705     7A1    -0.562979     3B1    -0.354411
       3B2    -0.354411

    Alpha Virtual:

       8A1     0.076503     9A1     0.242457     4B1     0.243215
       4B2     0.243215    10A1     0.277268    11A1     0.298565
       1A2     0.298566     5B1     0.399242     5B2     0.399242
      12A1     0.421905     6B2     0.550349     6B1     0.550349
      13A1     0.657736    14A1     0.902930     2A2     0.962590
      15A1     0.962595    16A1     0.968418     3A2     0.968418
       7B1     0.985157     7B2     0.985157    17A1     1.067635
       8B1     1.070789     8B2     1.070789     9B1     1.211035
       9B2     1.211035    10B1     1.260091    10B2     1.260091
      18A1     1.268622     4A2     1.388443    19A1     1.388446
      20A1     1.428301    21A1     1.689850    11B2     1.717249
      11B1     1.717249    22A1     2.034682    12B2     2.481037
      12B1     2.481037    23A1     2.595860     5A2     2.595870
      24A1     2.646949    13B1     2.747583    13B2     2.747583
      14B1     2.822547    14B2     2.822547     6A2     2.827014
      25A1     2.827020    15B1     2.928291    15B2     2.928291
      26A1     2.930383     7A2     2.930418    16B1     3.104267
      16B2     3.104267    27A1     3.133887     8A2     3.171705
      28A1     3.171732    17B2     3.354570    17B1     3.354570
      29A1     3.387334    18B1     3.519893    18B2     3.519893
      30A1     3.577457     9A2     3.825644    31A1     3.825661
      32A1     3.861662    33A1     4.053988    10A2     4.053999
      19B2     4.300739    19B1     4.300739    34A1     4.591692
      20B1     4.676396    20B2     4.676396    35A1     4.783659
      21B1     5.401231    21B2     5.401231    36A1     7.137408
      22B1     8.590738    22B2     8.590738    37A1     8.607005
      38A1     8.642274    11A2     8.642320    12A2     8.895059
      39A1     8.895234    23B1     8.920995    23B2     8.920995
      40A1     9.101923    13A2     9.101946    24B2     9.459989
      24B1     9.459989    41A1     9.747783    25B2    10.027733
      25B1    10.027733    42A1    10.766169    26B1    10.970586
      26B2    10.970586    43A1    11.211760    14A2    11.211828
      27B2    11.792911    27B1    11.792911    44A1    11.879785
      45A1    12.018158    15A2    12.018262    28B2    12.304845
      28B1    12.304845    46A1    13.069132    47A1    18.199615
      48A1    41.070290

    Beta Occupied:

       1A1   -89.291522     2A1   -19.382666     3A1    -8.199557
       4A1    -6.109814     1B1    -6.101560     1B2    -6.101560
       5A1    -1.182453     6A1    -0.737248     7A1    -0.528106
       2B1    -0.496826     2B2    -0.496826

    Beta Virtual:

       3B1    -0.040166     3B2    -0.040166     8A1     0.093930
       9A1     0.245835     4B1     0.247098     4B2     0.247098
      10A1     0.293949     1A2     0.330091    11A1     0.330091
      12A1     0.429956     5B1     0.436865     5B2     0.436865
       6B1     0.564016     6B2     0.564016    13A1     0.671988
      14A1     0.910297    15A1     0.984547     2A2     0.984548
       3A2     1.001951    16A1     1.001952     7B1     1.004838
       7B2     1.004838    17A1     1.090693     8B1     1.107126
       8B2     1.107126     9B2     1.258636     9B1     1.258636
      10B2     1.291950    10B1     1.291950    18A1     1.295076
       4A2     1.414605    19A1     1.414614    20A1     1.441800
      21A1     1.714883    11B1     1.735996    11B2     1.735996
      22A1     2.063588    12B1     2.529280    12B2     2.529280
      23A1     2.663893     5A2     2.663908    24A1     2.678302
      13B2     2.787807    13B1     2.787807    25A1     2.860272
       6A2     2.860273    14B1     2.875846    14B2     2.875846
      15B2     2.958095    15B1     2.958095    26A1     3.029515
       7A2     3.029528    27A1     3.166359    16B1     3.194947
      16B2     3.194947     8A2     3.238325    28A1     3.238341
      17B2     3.401519    17B1     3.401519    29A1     3.419705
      18B2     3.566856    18B1     3.566856    30A1     3.611886
       9A2     3.878373    31A1     3.878384    32A1     3.892525
      10A2     4.093439    33A1     4.093446    19B1     4.333417
      19B2     4.333417    34A1     4.611487    20B2     4.718343
      20B1     4.718343    35A1     4.802572    21B2     5.455949
      21B1     5.455949    36A1     7.163962    22B2     8.614065
      22B1     8.614065    37A1     8.629247    38A1     8.680869
      11A2     8.680907    12A2     8.971746    39A1     8.971935
      23B1     8.972516    23B2     8.972516    40A1     9.140717
      13A2     9.140724    24B1     9.492994    24B2     9.492994
      41A1     9.777555    25B1    10.090043    25B2    10.090043
      42A1    10.803802    26B2    11.076894    26B1    11.076894
      43A1    11.285490    14A2    11.285576    27B1    11.841896
      27B2    11.841896    44A1    11.910131    45A1    12.137734
      15A2    12.137850    28B1    12.374417    28B2    12.374417
      46A1    13.113454    47A1    18.214801    48A1    41.096841

    Final Occupation by Irrep:
             A1    A2    B1    B2
    DOCC [     7,    0,    2,    2 ]
    SOCC [     0,    0,    1,    1 ]

  @DF-UKS Final Energy:  -473.38316390647401

   => Energetics <=

    Nuclear Repulsion Energy =             45.8907683080646720
    One-Electron Energy =                -743.9206499190815975
    Two-Electron Energy =                 250.5884913918045243
    DFT Exchange-Correlation Energy =     -26.0425701110651922
    Empirical Dispersion Energy =           0.0000000000000000
    VV10 Nonlocal Energy =                  0.1007964238035678
    Total Energy =                       -473.3831639064740102

  UHF NO Occupations:
  HONO-2 :    2 B2 1.9982862
  HONO-1 :    3 B2 1.0000000
  HONO-0 :    3 B1 1.0000000
  LUNO+0 :    4 B2 0.0017138
  LUNO+1 :    4 B1 0.0017138
  LUNO+2 :    8 A1 0.0003449
  LUNO+3 :    9 A1 0.0002198

Computation Completed

Properties will be evaluated at   0.000000,   0.000000,   0.000000 [a0]

Properties computed using the SCF density matrix

  Nuclear Dipole Moment: [e a0]
     X:     0.0000      Y:     0.0000      Z:    -0.0083

  Electronic Dipole Moment: [e a0]
     X:     0.0000      Y:     0.0000      Z:    -0.6036

  Dipole Moment: [e a0]
     X:     0.0000      Y:     0.0000      Z:    -0.6119     Total:     0.6119

  Dipole Moment: [D]
     X:     0.0000      Y:     0.0000      Z:    -1.5552     Total:     1.5552

*** tstop() called on bp1-compute00048.data.bp.acrc.priv at Tue Apr 27 17:19:40 2021
Module time:
	user time   =     242.44 seconds =       4.04 minutes
	system time =      10.19 seconds =       0.17 minutes
	total time  =         11 seconds =       0.18 minutes
Total time:
	user time   =    2867.52 seconds =      47.79 minutes
	system time =     121.46 seconds =       2.02 minutes
	total time  =        127 seconds =       2.12 minutes

         ----------------------------------------------------------
                                   FINDIF
                     R. A. King and Jonathon Misiewicz
         ---------------------------------------------------------

  Computing second-derivative from energies using projected,
  symmetry-adapted, cartesian coordinates.

  3 energies passed in, including the reference geometry.
    Using 3-point formula.
    Energy without displacement: -473.3831647280
    Check energies below for precision!
    0: -1 :      -473.3831641616
    0: 1  :      -473.3831639065

-------------------------------------------------------------

  ==> Harmonic Vibrational Analysis <==

  non-mass-weighted Hessian:       Symmetric? True   Hermitian? True   Lin Dep Dim?  5 (0)
  projection of translations (True) and rotations (True) removed 5 degrees of freedom (5)
  total projector:                 Symmetric? True   Hermitian? True   Lin Dep Dim?  5 (5)
  mass-weighted Hessian:           Symmetric? True   Hermitian? True   Lin Dep Dim?  5 (0)
  pre-proj  low-frequency mode:    0.0000i [cm^-1]
  pre-proj  low-frequency mode:    0.0000  [cm^-1]
  pre-proj  low-frequency mode:    0.0000  [cm^-1]
  pre-proj  low-frequency mode:    0.0000  [cm^-1]
  pre-proj  low-frequency mode:    0.0000  [cm^-1]
  pre-proj  all modes:['0.0000i' '0.0000' '0.0000' '0.0000' '0.0000' '1211.1925']
  projected mass-weighted Hessian: Symmetric? True   Hermitian? True   Lin Dep Dim?  5 (5)
  post-proj low-frequency mode:    0.0000  [cm^-1] (TR)
  post-proj low-frequency mode:    0.0000  [cm^-1] (TR)
  post-proj low-frequency mode:    0.0000  [cm^-1] (TR)
  post-proj low-frequency mode:    0.0000  [cm^-1] (TR)
  post-proj low-frequency mode:    0.0000  [cm^-1] (TR)
  post-proj  all modes:['0.0000' '0.0000' '0.0000' '0.0000' '0.0000' '1211.1925']

  Vibration                       6
  Freq [cm^-1]                1211.1925
  Irrep                           A1
  Reduced mass [u]             19.1932
  Force const [mDyne/A]        16.5891
  Turning point v=0 [a0]        0.0720
  RMS dev v=0 [a0 u^1/2]        0.2229
  Char temp [K]               1742.6363
  ----------------------------------------------------------------------------------
      1   S                0.00  0.00 -0.45
      2   O                0.00  0.00  0.89

  ==> Thermochemistry Components <==

  Entropy, S
    Electronic S            2.183 [cal/(mol K)]        9.134 [J/(mol K)]       0.00347910 [mEh/K] (multiplicity = 3)
    Translational S        37.528 [cal/(mol K)]      157.018 [J/(mol K)]       0.05980487 [mEh/K] (mol. weight = 47.9670 [u], P = 101325.00 [Pa])
    Rotational S           13.226 [cal/(mol K)]       55.336 [J/(mol K)]       0.02107635 [mEh/K] (symmetry no. = 1)
    Vibrational S           0.039 [cal/(mol K)]        0.165 [J/(mol K)]       0.00006292 [mEh/K]
  Total S                  52.976 [cal/(mol K)]      221.653 [J/(mol K)]       0.08442323 [mEh/K]
  Correction S              0.000 [cal/(mol K)]        0.000 [J/(mol K)]       0.00000000 [mEh/K]

  Constant volume heat capacity, Cv
    Electronic Cv           0.000 [cal/(mol K)]        0.000 [J/(mol K)]       0.00000000 [mEh/K]
    Translational Cv        2.981 [cal/(mol K)]       12.472 [J/(mol K)]       0.00475022 [mEh/K]
    Rotational Cv           1.987 [cal/(mol K)]        8.314 [J/(mol K)]       0.00316681 [mEh/K]
    Vibrational Cv          0.198 [cal/(mol K)]        0.827 [J/(mol K)]       0.00031500 [mEh/K]
  Total Cv                  5.166 [cal/(mol K)]       21.613 [J/(mol K)]       0.00823202 [mEh/K]
  Correction Cv             0.000 [cal/(mol K)]        0.000 [J/(mol K)]       0.00000000 [mEh/K]

  Constant pressure heat capacity, Cp
    Electronic Cp           0.000 [cal/(mol K)]        0.000 [J/(mol K)]       0.00000000 [mEh/K]
    Translational Cp        4.968 [cal/(mol K)]       20.786 [J/(mol K)]       0.00791703 [mEh/K]
    Rotational Cp           1.987 [cal/(mol K)]        8.314 [J/(mol K)]       0.00316681 [mEh/K]
    Vibrational Cp          0.198 [cal/(mol K)]        0.827 [J/(mol K)]       0.00031500 [mEh/K]
  Total Cp                  7.153 [cal/(mol K)]       29.928 [J/(mol K)]       0.01139883 [mEh/K]
  Correction Cp             0.000 [cal/(mol K)]        0.000 [J/(mol K)]       0.00000000 [mEh/K]

  ==> Thermochemistry Energy Analysis <==

  Raw electronic energy, E0
  Total E0, Electronic energy at well bottom at 0 [K]                 -473.38316473 [Eh]

  Zero-point energy, ZPE_vib = Sum_i nu_i / 2
    Electronic ZPE          0.000 [kcal/mol]        0.000 [kJ/mol]       0.00000000 [Eh]
    Translational ZPE       0.000 [kcal/mol]        0.000 [kJ/mol]       0.00000000 [Eh]
    Rotational ZPE          0.000 [kcal/mol]        0.000 [kJ/mol]       0.00000000 [Eh]
    Vibrational ZPE         1.731 [kcal/mol]        7.245 [kJ/mol]       0.00275930 [Eh]         605.596 [cm^-1]
  Correction ZPE            1.731 [kcal/mol]        7.245 [kJ/mol]       0.00275930 [Eh]         605.596 [cm^-1]
  Total ZPE, Electronic energy at 0 [K]                               -473.38040543 [Eh]

  Thermal Energy, E (includes ZPE)
    Electronic E            0.000 [kcal/mol]        0.000 [kJ/mol]       0.00000000 [Eh]
    Translational E         0.889 [kcal/mol]        3.718 [kJ/mol]       0.00141628 [Eh]
    Rotational E            0.592 [kcal/mol]        2.479 [kJ/mol]       0.00094418 [Eh]
    Vibrational E           1.742 [kcal/mol]        7.287 [kJ/mol]       0.00277532 [Eh]
  Correction E              3.223 [kcal/mol]       13.484 [kJ/mol]       0.00513578 [Eh]
  Total E, Electronic energy at  298.15 [K]                           -473.37802895 [Eh]

  Enthalpy, H_trans = E_trans + k_B * T
    Electronic H            0.000 [kcal/mol]        0.000 [kJ/mol]       0.00000000 [Eh]
    Translational H         1.481 [kcal/mol]        6.197 [kJ/mol]       0.00236046 [Eh]
    Rotational H            0.592 [kcal/mol]        2.479 [kJ/mol]       0.00094418 [Eh]
    Vibrational H           1.742 [kcal/mol]        7.287 [kJ/mol]       0.00277532 [Eh]
  Correction H              3.815 [kcal/mol]       15.963 [kJ/mol]       0.00607997 [Eh]
  Total H, Enthalpy at  298.15 [K]                                    -473.37708476 [Eh]

  Gibbs free energy, G = H - T * S
    Electronic G           -0.651 [kcal/mol]       -2.723 [kJ/mol]      -0.00103729 [Eh]
    Translational G        -9.708 [kcal/mol]      -40.617 [kJ/mol]      -0.01547036 [Eh]
    Rotational G           -3.351 [kcal/mol]      -14.019 [kJ/mol]      -0.00533973 [Eh]
    Vibrational G           1.730 [kcal/mol]        7.237 [kJ/mol]       0.00275656 [Eh]
  Correction G            -11.980 [kcal/mol]      -50.123 [kJ/mol]      -0.01909082 [Eh]
  Total G, Free enthalpy at  298.15 [K]                               -473.40225555 [Eh]

    Psi4 stopped on: Tuesday, 27 April 2021 05:19PM
    Psi4 wall time for execution: 0:02:07.39

*** Psi4 exiting successfully. Buy a developer a beer!
