                               Psi4 1.3.2 release

  ==> Input File <==

--------------------------------------------------------------------------
memory 144 GB

molecule {
0 1
B     0.000025702137  -0.000052552589  -0.198407020528
H    -0.399622606768  -1.029858472420   0.215550091991
H    -0.171134703482   0.990434479161   0.419174884486
H     0.570731623988   0.039476540557  -1.230190221591}

set basis aug-cc-pV(Q+d)Z
set dynamic_level 1

optimize("DSD-BLYP-D3BJ")
frequencies("DSD-BLYP-D3BJ")
--------------------------------------------------------------------------

    Molecular point group: c1
  Charge       = 0
  Multiplicity = 1
  Basis Set: AUG-CC-PV(Q+D)Z
    Blend: AUG-CC-PV(Q+D)Z
  Basis Set: (AUG-CC-PV(Q+D)Z AUX)
    Blend: AUG-CC-PVQZ-JKFIT
  @DF-RKS Final Energy:   -26.51039493498568
    Total Energy =                        -26.5103949349856833
  Basis Set: (AUG-CC-PV(Q+D)Z AUX)
    Blend: AUG-CC-PVQZ-RI
	 Reference Energy          =     -26.5103949349856833 [Eh]
	 Singles Energy            =      -0.0000000000000000 [Eh]
	 Same-Spin Energy          =      -0.0164900428497491 [Eh]
	 Opposite-Spin Energy      =      -0.1452485418316780 [Eh]
	 Correlation Energy        =      -0.1617385846814272 [Eh]
	 Total Energy              =     -26.6721335196671099 [Eh]
	 SCS Total Energy          =     -26.5852577667864729 [Eh]
    Molecular point group: c1
  Basis Set: AUG-CC-PV(Q+D)Z
    Blend: AUG-CC-PV(Q+D)Z
  Basis Set: (AUG-CC-PV(Q+D)Z AUX)
    Blend: AUG-CC-PVQZ-JKFIT
  @DF-RKS Final Energy:   -26.51039382748963
    Total Energy =                        -26.5103938274896329
  Basis Set: (AUG-CC-PV(Q+D)Z AUX)
  @DF-RKS Final Energy:   -26.51039388176510
    Total Energy =                        -26.5103938817651077
  @DF-RKS Final Energy:   -26.51039249437848
    Total Energy =                        -26.5103924943784790
  @DF-RKS Final Energy:   -26.51039278544076
    Total Energy =                        -26.5103927854407644
  @DF-RKS Final Energy:   -26.51039311867990
    Total Energy =                        -26.5103931186799002
  @DF-RKS Final Energy:   -26.51039285228429
    Total Energy =                        -26.5103928522842978
  @DF-RKS Final Energy:   -26.51040306460516
    Total Energy =                        -26.5104030646051640
  @DF-RKS Final Energy:   -26.51038181639939
    Total Energy =                        -26.5103818163993878
  @DF-RKS Final Energy:   -26.51040071954786
    Total Energy =                        -26.5104007195478601
  @DF-RKS Final Energy:   -26.51038454160312
    Total Energy =                        -26.5103845416031199
  @DF-RKS Final Energy:   -26.51040546027960
    Total Energy =                        -26.5104054602795998
  @DF-RKS Final Energy:   -26.51037900459608
    Total Energy =                        -26.5103790045960821
  @DF-RKS Final Energy:   -26.51039493498721
    Total Energy =                        -26.5103949349872146
  @DF-RKS Final Energy:   -26.51039382748944
    Total Energy =                        -26.5103938274894375
  @DF-RKS Final Energy:   -26.51039388175889
    Total Energy =                        -26.5103938817588904
  @DF-RKS Final Energy:   -26.51039249437935
    Total Energy =                        -26.5103924943793494
  @DF-RKS Final Energy:   -26.51039278544219
    Total Energy =                        -26.5103927854421890
  @DF-RKS Final Energy:   -26.51039311869204
    Total Energy =                        -26.5103931186920398
  @DF-RKS Final Energy:   -26.51039285227828
    Total Energy =                        -26.5103928522782759
  **** Optimization is complete! (in 3 steps) ****
    Final optimized geometry and variables:
  @DF-RKS Final Energy:   -26.51041466394088
    Total Energy =                        -26.5104146639408818
  @DF-RKS Final Energy:   -26.51041907816120
    Total Energy =                        -26.5104190781612026
  @DF-RKS Final Energy:   -26.51041663446632
    Total Energy =                        -26.5104166344663241
  @DF-RKS Final Energy:   -26.51041999629920
    Total Energy =                        -26.5104199962991984
  @DF-RKS Final Energy:   -26.51041427778603
    Total Energy =                        -26.5104142777860261
  @DF-RKS Final Energy:   -26.51041755430890
    Total Energy =                        -26.5104175543088978
  @DF-RKS Final Energy:   -26.51041232565805
    Total Energy =                        -26.5104123256580451
  @DF-RKS Final Energy:   -26.51041567111601
    Total Energy =                        -26.5104156711160108
  @DF-RKS Final Energy:   -26.51041129494489
    Total Energy =                        -26.5104112949448876
  @DF-RKS Final Energy:   -26.51041894066621
    Total Energy =                        -26.5104189406662094
  @DF-RKS Final Energy:   -26.51041322924018
    Total Energy =                        -26.5104132292401786
  @DF-RKS Final Energy:   -26.51041880727237
    Total Energy =                        -26.5104188072723623
  @DF-RKS Final Energy:   -26.51041104060135
    Total Energy =                        -26.5104110406013582
  @DF-RKS Final Energy:   -26.51041652398224
    Total Energy =                        -26.5104165239822329
  @DF-RKS Final Energy:   -26.51041376637831
    Total Energy =                        -26.5104137663783135
  @DF-RKS Final Energy:   -26.51041932442899
    Total Energy =                        -26.5104193244289910
  @DF-RKS Final Energy:   -26.51040940377235
    Total Energy =                        -26.5104094037723534
  @DF-RKS Final Energy:   -26.51041926502181
    Total Energy =                        -26.5104192650218025
  Multiplicity = 1
  @DF-RKS Final Energy:   -26.51041035276450
    Total Energy =                        -26.5104103527644988
	 Singles Energy            =      -0.0000000000000000 [Eh]
	 Same-Spin Energy          =      -0.0164784656302116 [Eh]
	 Opposite-Spin Energy      =      -0.1452487870107575 [Eh]
	 Correlation Energy        =      -0.1617272526409690 [Eh]
	 Total Energy              =     -26.6721376054054673 [Eh]
	 SCS Total Energy          =     -26.5852686689116382 [Eh]
    Molecular point group: c1

    Geometry (in Angstrom), charge = 0, multiplicity = 1:

       Center              X                  Y                   Z               Mass
    ------------   -----------------  -----------------  -----------------  -----------------
         B            0.000011353016    -0.000004038552     0.000008798804    11.009305360000
         H           -0.400817050191    -1.034559017544     0.414685887140     1.007825032230
         H           -0.171986614212     0.995951821527     0.620827582126     1.007825032230
         H            0.572679646031     0.038651312460    -1.035609585876     1.007825032230

  Charge       = 0
  Multiplicity = 1
  Basis Set: AUG-CC-PV(Q+D)Z
    Blend: AUG-CC-PV(Q+D)Z
  Basis Set: (AUG-CC-PV(Q+D)Z AUX)
    Blend: AUG-CC-PVQZ-JKFIT

    Orbital Energies [Eh]
    ---------------------

    Doubly Occupied:

       1A     -7.308280     2A     -0.641151     3A     -0.450965
       4A     -0.450947

  @DF-RKS Final Energy:   -26.51041913670997

   => Energetics <=

    Nuclear Repulsion Energy =              7.4726978573189831
    One-Electron Energy =                 -49.1543211752999767
    Two-Electron Energy =                  16.7108652603228514
    DFT Exchange-Correlation Energy =      -1.5387913790518275
    Empirical Dispersion Energy =          -0.0008697000000000
    VV10 Nonlocal Energy =                  0.0000000000000000
    Total Energy =                        -26.5104191367099666

  Dipole Moment: [D]
     X:     0.0005      Y:    -0.0013      Z:    -0.0011     Total:     0.0018

  Basis Set: (AUG-CC-PV(Q+D)Z AUX)
    Blend: AUG-CC-PVQZ-RI
	 Reference Energy          =     -26.5104191367099666 [Eh]
	 Singles Energy            =      -0.0000000000000000 [Eh]
	 Same-Spin Energy          =      -0.0164552890438447 [Eh]
	 Opposite-Spin Energy      =      -0.1452500227463746 [Eh]
	 Correlation Energy        =      -0.1617053117902193 [Eh]
	 Total Energy              =     -26.6721244485001847 [Eh]

	 ================> DF-SCS-MP2 Energies <==================
	-----------------------------------------------------------
	 SCS Same-Spin Scale       =       0.4000000000000000 [-]
	 SCS Opposite-Spin Scale   =       0.4700000000000000 [-]
	 SCS Same-Spin Energy      =      -0.0065821156175379 [Eh]
	 SCS Opposite-Spin Energy  =      -0.0682675106907960 [Eh]
	 SCS Correlation Energy    =      -0.0748496263083339 [Eh]
	 SCS Total Energy          =     -26.5852687630183020 [Eh]
	-----------------------------------------------------------

  Vibration                       7                   8                   9
  Freq [cm^-1]                1178.8838           1241.5739           1255.4632
  Irrep                           A                   A                   A
  Reduced mass [u]              1.2530              1.1091              1.1062
  Force const [mDyne/A]         1.0260              1.0073              1.0273

  Vibration                       10                  11                  12
  Freq [cm^-1]                2612.7512           2740.8092           2747.9515
  Irrep                           A                   A                   A
  Reduced mass [u]              1.0079              1.1252              1.1285
  Force const [mDyne/A]         4.0537              4.9801              5.0206

  ==> Thermochemistry Components <==

  Entropy, S
    Electronic S            0.000 [cal/(mol K)]        0.000 [J/(mol K)]       0.00000000 [mEh/K] (multiplicity = 1)
    Translational S        33.864 [cal/(mol K)]      141.688 [J/(mol K)]       0.05396630 [mEh/K] (mol. weight = 14.0328 [u], P = 101325.00 [Pa])
    Rotational S           14.520 [cal/(mol K)]       60.753 [J/(mol K)]       0.02313947 [mEh/K] (symmetry no. = 1)
    Vibrational S           0.113 [cal/(mol K)]        0.473 [J/(mol K)]       0.00018005 [mEh/K]
  Total S                  48.498 [cal/(mol K)]      202.914 [J/(mol K)]       0.07728582 [mEh/K]
  Correction S              0.000 [cal/(mol K)]        0.000 [J/(mol K)]       0.00000000 [mEh/K]

  Constant volume heat capacity, Cv
    Electronic Cv           0.000 [cal/(mol K)]        0.000 [J/(mol K)]       0.00000000 [mEh/K]
    Translational Cv        2.981 [cal/(mol K)]       12.472 [J/(mol K)]       0.00475022 [mEh/K]
    Rotational Cv           2.981 [cal/(mol K)]       12.472 [J/(mol K)]       0.00475022 [mEh/K]
    Vibrational Cv          0.572 [cal/(mol K)]        2.393 [J/(mol K)]       0.00091143 [mEh/K]
  Total Cv                  6.534 [cal/(mol K)]       27.336 [J/(mol K)]       0.01041186 [mEh/K]
  Correction Cv             0.000 [cal/(mol K)]        0.000 [J/(mol K)]       0.00000000 [mEh/K]

  Constant pressure heat capacity, Cp
    Electronic Cp           0.000 [cal/(mol K)]        0.000 [J/(mol K)]       0.00000000 [mEh/K]
    Translational Cp        4.968 [cal/(mol K)]       20.786 [J/(mol K)]       0.00791703 [mEh/K]
    Rotational Cp           2.981 [cal/(mol K)]       12.472 [J/(mol K)]       0.00475022 [mEh/K]
    Vibrational Cp          0.572 [cal/(mol K)]        2.393 [J/(mol K)]       0.00091143 [mEh/K]
  Total Cp                  8.521 [cal/(mol K)]       35.651 [J/(mol K)]       0.01357867 [mEh/K]
  Correction Cp             0.000 [cal/(mol K)]        0.000 [J/(mol K)]       0.00000000 [mEh/K]

  ==> Thermochemistry Energy Analysis <==

  Raw electronic energy, E0
  Total E0, Electronic energy at well bottom at 0 [K]                  -26.58527432 [Eh]

  Zero-point energy, ZPE_vib = Sum_i nu_i / 2
    Electronic ZPE          0.000 [kcal/mol]        0.000 [kJ/mol]       0.00000000 [Eh]
    Translational ZPE       0.000 [kcal/mol]        0.000 [kJ/mol]       0.00000000 [Eh]
    Rotational ZPE          0.000 [kcal/mol]        0.000 [kJ/mol]       0.00000000 [Eh]
    Vibrational ZPE        16.837 [kcal/mol]       70.445 [kJ/mol]       0.02683097 [Eh]        5888.716 [cm^-1]
  Correction ZPE           16.837 [kcal/mol]       70.445 [kJ/mol]       0.02683097 [Eh]        5888.716 [cm^-1]
  Total ZPE, Electronic energy at 0 [K]                                -26.55844335 [Eh]

  Thermal Energy, E (includes ZPE)
    Electronic E            0.000 [kcal/mol]        0.000 [kJ/mol]       0.00000000 [Eh]
    Translational E         0.889 [kcal/mol]        3.718 [kJ/mol]       0.00141628 [Eh]
    Rotational E            0.889 [kcal/mol]        3.718 [kJ/mol]       0.00141628 [Eh]
    Vibrational E          16.865 [kcal/mol]       70.565 [kJ/mol]       0.02687687 [Eh]
  Correction E             18.643 [kcal/mol]       78.002 [kJ/mol]       0.02970942 [Eh]
  Total E, Electronic energy at  298.15 [K]                            -26.55556490 [Eh]

  Enthalpy, H_trans = E_trans + k_B * T
    Electronic H            0.000 [kcal/mol]        0.000 [kJ/mol]       0.00000000 [Eh]
    Translational H         1.481 [kcal/mol]        6.197 [kJ/mol]       0.00236046 [Eh]
    Rotational H            0.889 [kcal/mol]        3.718 [kJ/mol]       0.00141628 [Eh]
    Vibrational H          16.865 [kcal/mol]       70.565 [kJ/mol]       0.02687687 [Eh]
  Correction H             19.235 [kcal/mol]       80.481 [kJ/mol]       0.03065361 [Eh]
  Total H, Enthalpy at  298.15 [K]                                     -26.55462071 [Eh]

  Gibbs free energy, G = H - T * S
    Electronic G            0.000 [kcal/mol]        0.000 [kJ/mol]       0.00000000 [Eh]
    Translational G        -8.615 [kcal/mol]      -36.047 [kJ/mol]      -0.01372959 [Eh]
    Rotational G           -3.440 [kcal/mol]      -14.395 [kJ/mol]      -0.00548276 [Eh]
    Vibrational G          16.832 [kcal/mol]       70.424 [kJ/mol]       0.02682319 [Eh]
  Correction G              4.776 [kcal/mol]       19.982 [kJ/mol]       0.00761084 [Eh]
  Total G, Free enthalpy at  298.15 [K]                                -26.57766348 [Eh]

*** Psi4 exiting successfully. Buy a developer a beer!
