                         Program Version 4.2.0 -  RELEASE  -
|  1> #
|  2> # 01_BH3 scanfunc/aug-cc-pvt(+d)z
|  3> #
|  4> ! scanfunc d3bj aug-cc-pvt(+d)z def2/j opt xyzfile numfreq
|  5>
|  6> *xyz 0 1
|  7>   B   0.00058990711441     -0.00015241661398     -0.19828246925039
|  8>   H   -0.40433656286270     -1.04111721537816      0.22036101748058
|  9>   H   -0.17315147828119      1.00175941266214      0.42559464068470
| 10>   H   0.57689815002948      0.03951021333001     -1.24154545391489
| 11> *
| 12>
| 13> %pal
| 14> nprocs 24
| 15> end
| 16>
| 17>
| 18>                          ****END OF INPUT****
 Total Charge           Charge          ....    0
 Multiplicity           Mult            ....    1
 Number of Electrons    NEL             ....    8
Dispersion correction           -0.000179524
FINAL SINGLE POINT ENERGY       -26.588841971300
Dispersion correction            ... done
Dispersion correction           -0.000179493
FINAL SINGLE POINT ENERGY       -26.588818853174
Dispersion correction            ... done
Dispersion correction           -0.000179479
FINAL SINGLE POINT ENERGY       -26.588858125403
Dispersion correction            ... done
Dispersion correction           -0.000179487
FINAL SINGLE POINT ENERGY       -26.588855677451
Dispersion correction            ... done
                    ***********************HURRAY********************

CARTESIAN COORDINATES (ANGSTROEM)
---------------------------------
  B     -0.003596   -0.000640   -0.199106
  H     -0.402055   -1.039590    0.219420
  H     -0.170415    0.999702    0.422735
  H      0.576066    0.040528   -1.236922

 Multiplicity           Mult            ....    1
 Number of Electrons    NEL             ....    8
 Basis Dimension        Dim             ....  115

ORBITAL ENERGIES
----------------

  NO   OCC          E(Eh)            E(eV)
   0   2.0000      -6.644044      -180.7936
   1   2.0000      -0.484171       -13.1750
   2   2.0000      -0.324711        -8.8358
   3   2.0000      -0.324415        -8.8278
   4   0.0000      -0.094566        -2.5733
   5   0.0000       0.030367         0.8263
   6   0.0000       0.043941         1.1957
   7   0.0000       0.044333         1.2064
   8   0.0000       0.056131         1.5274

MULLIKEN ATOMIC CHARGES
-----------------------
   0 B :    0.107813
   1 H :   -0.036282
   2 H :   -0.024094
   3 H :   -0.047437
Sum of atomic charges:    0.0000000

LOEWDIN ATOMIC CHARGES
----------------------
   0 B :    0.601530
   1 H :   -0.200910
   2 H :   -0.199758
   3 H :   -0.200862

  Mayer bond orders larger than 0.100000
B(  0-B ,  1-H ) :   0.9706 B(  0-B ,  2-H ) :   0.9778 B(  0-B ,  3-H ) :   0.9759

Dispersion correction           -0.000179487
FINAL SINGLE POINT ENERGY       -26.588854111613

DIPOLE MOMENT
-------------
                                X             Y             Z
Electronic contribution:     -0.01688       0.00278      -0.00633
Nuclear contribution   :      0.01134       0.00202       0.00201
                        -----------------------------------------
Total Dipole Moment    :     -0.00554       0.00480      -0.00432
                        -----------------------------------------
Magnitude (a.u.)       :      0.00851
Magnitude (Debye)      :      0.02163

VIBRATIONAL FREQUENCIES
-----------------------

Scaling factor for frequencies =  1.000000000 (already applied!)

   0:         0.00 cm**-1
   1:         0.00 cm**-1
   2:         0.00 cm**-1
   3:         0.00 cm**-1
   4:         0.00 cm**-1
   5:         0.00 cm**-1
   6:      1097.45 cm**-1
   7:      1178.89 cm**-1
   8:      1181.85 cm**-1
   9:      2533.39 cm**-1
  10:      2731.99 cm**-1
  11:      2738.22 cm**-1

IR SPECTRUM
-----------

 Mode    freq (cm**-1)   T**2         TX         TY         TZ
-------------------------------------------------------------------
   6:      1097.45   84.558912  (  8.172430  -1.292366   4.012492)
   7:      1178.89   10.605410  ( -0.451304   2.594009   1.916468)
   8:      1181.85   10.062954  (  1.372279   1.542767  -2.408252)
   9:      2533.39    0.305587  ( -0.165939   0.276735   0.448853)
  10:      2731.99  186.522972  (  4.805966  -7.200262 -10.563233)
  11:      2738.22  170.636294  (  4.912806  10.819426  -5.425923)

--------------------------
THERMOCHEMISTRY AT 298.15K
--------------------------

Temperature         ... 298.15 K
Pressure            ... 1.00 atm
Total Mass          ... 13.83 AMU

Throughout the following assumptions are being made:
  (1) The electronic state is orbitally nondegenerate
  (2) There are no thermally accessible electronically excited states
  (3) Hindered rotations indicated by low frequency modes are not
      treated as such but are treated as vibrations and this may
      cause some error
  (4) All equations used are the standard statistical mechanics
      equations for an ideal gas
  (5) All vibrations are strictly harmonic

freq.    1097.45  E(vib)   ...       0.02
freq.    1178.89  E(vib)   ...       0.01
freq.    1181.85  E(vib)   ...       0.01
freq.    2533.39  E(vib)   ...       0.00
freq.    2731.99  E(vib)   ...       0.00
freq.    2738.22  E(vib)   ...       0.00

------------
INNER ENERGY
------------

The inner energy is: U= E(el) + E(ZPE) + E(vib) + E(rot) + E(trans)
    E(el)   - is the total energy from the electronic structure calculation
              = E(kin-el) + E(nuc-el) + E(el-el) + E(nuc-nuc)
    E(ZPE)  - the the zero temperature vibrational energy from the frequency calculation
    E(vib)  - the the finite temperature correction to E(ZPE) due to population
              of excited vibrational states
    E(rot)  - is the rotational thermal energy
    E(trans)- is the translational thermal energy

Summary of contributions to the inner energy U:
Electronic energy                ...    -26.58885408 Eh
Zero point energy                ...      0.02611188 Eh      16.39 kcal/mol
Thermal vibrational correction   ...      0.00006155 Eh       0.04 kcal/mol
Thermal rotational correction    ...      0.00141627 Eh       0.89 kcal/mol
Thermal translational correction ...      0.00141627 Eh       0.89 kcal/mol
-----------------------------------------------------------------------
Total thermal energy                    -26.55984811 Eh

Summary of corrections to the electronic energy:
(perhaps to be used in another calculation)
Total thermal correction                  0.00289410 Eh       1.82 kcal/mol
Non-thermal (ZPE) correction              0.02611188 Eh      16.39 kcal/mol
-----------------------------------------------------------------------
Total correction                          0.02900597 Eh      18.20 kcal/mol

--------
ENTHALPY
--------

The enthalpy is H = U + kB*T
                kB is Boltzmann's constant
Total free energy                 ...    -26.55984811 Eh
Thermal Enthalpy correction       ...      0.00094421 Eh       0.59 kcal/mol
-----------------------------------------------------------------------
Total Enthalpy                    ...    -26.55890390 Eh

Note: Only C1 symmetry has been detected, increase convergence thresholds
      if your molecule has a higher symmetry. Symmetry factor of 1.0 is
      used for the rotational entropy correction.

Note: Rotational entropy computed according to Herzberg
Infrared and Raman Spectra, Chapter V,1, Van Nostrand Reinhold, 1945
Point Group:  C1, Symmetry Number:   1
Rotational constants in cm-1:     7.906141     7.858780     3.941281

Vibrational entropy computed according to the QRRHO of S. Grimme
Chem.Eur.J. 2012 18 9955

-------
ENTROPY
-------

The entropy contributions are T*S = T*(S(el)+S(vib)+S(rot)+S(trans))
     S(el)   - electronic entropy
     S(vib)  - vibrational entropy
     S(rot)  - rotational entropy
     S(trans)- translational entropy
The entropies will be listed as mutliplied by the temperature to get
units of energy

Electronic entropy                ...      0.00000000 Eh      0.00 kcal/mol
Vibrational entropy               ...      0.00007269 Eh      0.05 kcal/mol
Rotational entropy                ...      0.00691395 Eh      4.34 kcal/mol
Translational entropy             ...      0.01606980 Eh     10.08 kcal/mol
-----------------------------------------------------------------------
Final entropy term                ...      0.02305643 Eh     14.47 kcal/mol

In case the symmetry of your molecule has not been determined correctly
or in case you have a reason to use a different symmetry number we print
out the resulting rotational entropy values for sn=1,12 :
 --------------------------------------------------------
|  sn= 1 | S(rot)=       0.00691395 Eh      4.34 kcal/mol|
|  sn= 2 | S(rot)=       0.00625949 Eh      3.93 kcal/mol|
|  sn= 3 | S(rot)=       0.00587666 Eh      3.69 kcal/mol|
|  sn= 4 | S(rot)=       0.00560503 Eh      3.52 kcal/mol|
|  sn= 5 | S(rot)=       0.00539435 Eh      3.38 kcal/mol|
|  sn= 6 | S(rot)=       0.00522220 Eh      3.28 kcal/mol|
|  sn= 7 | S(rot)=       0.00507665 Eh      3.19 kcal/mol|
|  sn= 8 | S(rot)=       0.00495058 Eh      3.11 kcal/mol|
|  sn= 9 | S(rot)=       0.00483937 Eh      3.04 kcal/mol|
|  sn=10 | S(rot)=       0.00473989 Eh      2.97 kcal/mol|
|  sn=11 | S(rot)=       0.00464990 Eh      2.92 kcal/mol|
|  sn=12 | S(rot)=       0.00456774 Eh      2.87 kcal/mol|
 --------------------------------------------------------

-------------------
GIBBS FREE ENERGY
-------------------

The Gibbs free energy is G = H - T*S

Total enthalpy                    ...    -26.55890390 Eh
Total entropy correction          ...     -0.02305643 Eh    -14.47 kcal/mol
-----------------------------------------------------------------------
Final Gibbs free energy         ...    -26.58196033 Eh

For completeness - the Gibbs free energy minus the electronic energy
G-E(el)                           ...      0.00689375 Eh      4.33 kcal/mol

                             ****ORCA TERMINATED NORMALLY****
TOTAL RUN TIME: 0 days 0 hours 0 minutes 25 seconds 490 msec
