                         Program Version 4.2.0 -  RELEASE  -
|  1> #
|  2> # 02_C2H2 scanfunc/aug-cc-pvt(+d)z
|  3> #
|  4> ! scanfunc d3bj aug-cc-pvt(+d)z def2/j opt xyzfile numfreq usesym
|  5>
|  6> *xyz 0 1
|  7> C            0.000000000          0.000000000         -0.598584835
|  8> C            0.000000000          0.000000000          0.598584827
|  9> H            0.000000000          0.000000000         -1.664429739
| 10> H            0.000000000          0.000000000          1.664429747
| 11> *
| 12>
| 13> %pal
| 14> nprocs 24
| 15> end
| 16>
| 17>
| 18>                          ****END OF INPUT****
 Total Charge           Charge          ....    0
 Multiplicity           Mult            ....    1
 Number of Electrons    NEL             ....   14
Dispersion correction           -0.000278077
FINAL SINGLE POINT ENERGY       -77.321749561941
Dispersion correction            ... done
Dispersion correction           -0.000278319
FINAL SINGLE POINT ENERGY       -77.321391357738
Dispersion correction            ... done
Dispersion correction           -0.000278341
FINAL SINGLE POINT ENERGY       -77.321313478561
Dispersion correction            ... done
                    ***********************HURRAY********************

CARTESIAN COORDINATES (ANGSTROEM)
---------------------------------
  C     -0.000000   -0.000000   -0.592230
  C     -0.000000    0.000000    0.592230
  H      0.000000   -0.000000   -1.653252
  H      0.000000   -0.000000    1.653252

 Multiplicity           Mult            ....    1
 Number of Electrons    NEL             ....   14
 Basis Dimension        Dim             ....  138

ORBITAL ENERGIES
----------------

  NO   OCC          E(Eh)            E(eV)
   0   2.0000     -10.027110      -272.8515
   1   2.0000     -10.024371      -272.7770
   2   2.0000      -0.726387       -19.7660
   3   2.0000      -0.540474       -14.7070
   4   2.0000      -0.466428       -12.6922
   5   2.0000      -0.273731        -7.4486
   6   2.0000      -0.273731        -7.4486
   7   0.0000       0.004233         0.1152
   8   0.0000       0.004233         0.1152
   9   0.0000       0.015860         0.4316
  10   0.0000       0.023918         0.6508
  11   0.0000       0.066122         1.7993

MULLIKEN ATOMIC CHARGES
-----------------------
   0 C :   -0.747248
   1 C :   -0.747254
   2 H :    0.747251
   3 H :    0.747251
Sum of atomic charges:   -0.0000000

LOEWDIN ATOMIC CHARGES
----------------------
   0 C :    0.303735
   1 C :    0.303732
   2 H :   -0.303734
   3 H :   -0.303733

  Mayer bond orders larger than 0.100000
B(  0-C ,  1-C ) :   1.8892 B(  0-C ,  2-H ) :   0.3178 B(  1-C ,  3-H ) :   0.3178

Dispersion correction           -0.000278341
FINAL SINGLE POINT ENERGY       -77.321315607944

DIPOLE MOMENT
-------------
                                X             Y             Z
Electronic contribution:     -0.00000       0.00000      -0.00001
Nuclear contribution   :      0.00000      -0.00000       0.00000
                        -----------------------------------------
Total Dipole Moment    :      0.00000      -0.00000      -0.00000
                        -----------------------------------------
Magnitude (a.u.)       :      0.00000
Magnitude (Debye)      :      0.00001

VIBRATIONAL FREQUENCIES
-----------------------

Scaling factor for frequencies =  1.000000000 (already applied!)

   0:         0.00 cm**-1
   1:         0.00 cm**-1
   2:         0.00 cm**-1
   3:         0.00 cm**-1
   4:         0.00 cm**-1
   5:       665.72 cm**-1
   6:       665.76 cm**-1
   7:       833.33 cm**-1
   8:       833.33 cm**-1
   9:      2125.12 cm**-1
  10:      3407.47 cm**-1
  11:      3517.06 cm**-1

IR SPECTRUM
-----------

 Mode    freq (cm**-1)   T**2         TX         TY         TZ
-------------------------------------------------------------------
   5:       665.72    0.000065  ( -0.005964  -0.005389  -0.000003)
   6:       665.76    0.000071  (  0.005646  -0.006245   0.000002)
   7:       833.33  125.055493  ( 11.003185  -1.996351   0.000002)
   8:       833.33  125.055542  ( -1.996361 -11.003185   0.000007)
   9:      2125.12    0.000000  (  0.000012  -0.000018   0.000004)
  10:      3407.47  109.955708  (  0.000002   0.000001 -10.485977)
  11:      3517.06    0.000000  ( -0.000004   0.000001   0.000329)

--------------------------
THERMOCHEMISTRY AT 298.15K
--------------------------

Temperature         ... 298.15 K
Pressure            ... 1.00 atm
Total Mass          ... 26.04 AMU
The molecule is recognized as being linear

Throughout the following assumptions are being made:
  (1) The electronic state is orbitally nondegenerate
  (2) There are no thermally accessible electronically excited states
  (3) Hindered rotations indicated by low frequency modes are not
      treated as such but are treated as vibrations and this may
      cause some error
  (4) All equations used are the standard statistical mechanics
      equations for an ideal gas
  (5) All vibrations are strictly harmonic

freq.     665.72  E(vib)   ...       0.08
freq.     665.76  E(vib)   ...       0.08
freq.     833.33  E(vib)   ...       0.04
freq.     833.33  E(vib)   ...       0.04
freq.    2125.12  E(vib)   ...       0.00
freq.    3407.47  E(vib)   ...       0.00
freq.    3517.06  E(vib)   ...       0.00

------------
INNER ENERGY
------------

The inner energy is: U= E(el) + E(ZPE) + E(vib) + E(rot) + E(trans)
    E(el)   - is the total energy from the electronic structure calculation
              = E(kin-el) + E(nuc-el) + E(el-el) + E(nuc-nuc)
    E(ZPE)  - the the zero temperature vibrational energy from the frequency calculation
    E(vib)  - the the finite temperature correction to E(ZPE) due to population
              of excited vibrational states
    E(rot)  - is the rotational thermal energy
    E(trans)- is the translational thermal energy

Summary of contributions to the inner energy U:
Electronic energy                ...    -77.32131544 Eh
Zero point energy                ...      0.02744688 Eh      17.22 kcal/mol
Thermal vibrational correction   ...      0.00039343 Eh       0.25 kcal/mol
Thermal rotational correction    ...      0.00094418 Eh       0.59 kcal/mol
Thermal translational correction ...      0.00141627 Eh       0.89 kcal/mol
-----------------------------------------------------------------------
Total thermal energy                    -77.29111468 Eh

Summary of corrections to the electronic energy:
(perhaps to be used in another calculation)
Total thermal correction                  0.00275388 Eh       1.73 kcal/mol
Non-thermal (ZPE) correction              0.02744688 Eh      17.22 kcal/mol
-----------------------------------------------------------------------
Total correction                          0.03020076 Eh      18.95 kcal/mol

--------
ENTHALPY
--------

The enthalpy is H = U + kB*T
                kB is Boltzmann's constant
Total free energy                 ...    -77.29111468 Eh
Thermal Enthalpy correction       ...      0.00094421 Eh       0.59 kcal/mol
-----------------------------------------------------------------------
Total Enthalpy                    ...    -77.29017047 Eh

Note: Rotational entropy computed according to Herzberg
Infrared and Raman Spectra, Chapter V,1, Van Nostrand Reinhold, 1945
Point Group:  Dinfh, Symmetry Number:   2
Rotational constants in cm-1:     0.000000     1.209681     1.209681

Vibrational entropy computed according to the QRRHO of S. Grimme
Chem.Eur.J. 2012 18 9955

-------
ENTROPY
-------

The entropy contributions are T*S = T*(S(el)+S(vib)+S(rot)+S(trans))
     S(el)   - electronic entropy
     S(vib)  - vibrational entropy
     S(rot)  - rotational entropy
     S(trans)- translational entropy
The entropies will be listed as mutliplied by the temperature to get
units of energy

Electronic entropy                ...      0.00000000 Eh      0.00 kcal/mol
Vibrational entropy               ...      0.00050561 Eh      0.32 kcal/mol
Rotational entropy                ...      0.00514608 Eh      3.23 kcal/mol
Translational entropy             ...      0.01696549 Eh     10.65 kcal/mol
-----------------------------------------------------------------------
Final entropy term                ...      0.02261718 Eh     14.19 kcal/mol

In case the symmetry of your molecule has not been determined correctly
or in case you have a reason to use a different symmetry number we print
out the resulting rotational entropy values for sn=1,12 :
 --------------------------------------------------------
|  sn= 1 | S(rot)=      -0.00734464 Eh     -4.61 kcal/mol|
|  sn= 2 | S(rot)=      -0.00799909 Eh     -5.02 kcal/mol|
|  sn= 3 | S(rot)=      -0.00838193 Eh     -5.26 kcal/mol|
|  sn= 4 | S(rot)=      -0.00865355 Eh     -5.43 kcal/mol|
|  sn= 5 | S(rot)=      -0.00886424 Eh     -5.56 kcal/mol|
|  sn= 6 | S(rot)=      -0.00903638 Eh     -5.67 kcal/mol|
|  sn= 7 | S(rot)=      -0.00918193 Eh     -5.76 kcal/mol|
|  sn= 8 | S(rot)=      -0.00930801 Eh     -5.84 kcal/mol|
|  sn= 9 | S(rot)=      -0.00941922 Eh     -5.91 kcal/mol|
|  sn=10 | S(rot)=      -0.00951869 Eh     -5.97 kcal/mol|
|  sn=11 | S(rot)=      -0.00960868 Eh     -6.03 kcal/mol|
|  sn=12 | S(rot)=      -0.00969084 Eh     -6.08 kcal/mol|
 --------------------------------------------------------

-------------------
GIBBS FREE ENERGY
-------------------

The Gibbs free energy is G = H - T*S

Total enthalpy                    ...    -77.29017047 Eh
Total entropy correction          ...     -0.02261718 Eh    -14.19 kcal/mol
-----------------------------------------------------------------------
Final Gibbs free energy         ...    -77.31278764 Eh

For completeness - the Gibbs free energy minus the electronic energy
G-E(el)                           ...      0.00852779 Eh      5.35 kcal/mol

                             ****ORCA TERMINATED NORMALLY****
TOTAL RUN TIME: 0 days 0 hours 0 minutes 22 seconds 806 msec
