                         Program Version 4.2.0 -  RELEASE  -
|  1> #
|  2> # 03_C2H4 scanfunc/aug-cc-pvt(+d)z
|  3> #
|  4> ! scanfunc d3bj aug-cc-pvt(+d)z def2/j opt xyzfile numfreq
|  5>
|  6> *xyz 0 1
|  7> C           -0.660880719         -0.052042050         -0.000518813
|  8> C            0.660811459          0.052037749          0.000552241
|  9> H           -1.234160473          0.004039688         -0.920739055
| 10> H           -1.219846088         -0.197224842          0.918756738
| 11> H            1.219778335          0.197219347         -0.918722591
| 12> H            1.234090068         -0.004046487          0.920773141
| 13> *
| 14>
| 15> %pal
| 16> nprocs 24
| 17> end
| 18>
| 19>
| 20>                          ****END OF INPUT****
 Total Charge           Charge          ....    0
 Multiplicity           Mult            ....    1
 Number of Electrons    NEL             ....   16
Dispersion correction           -0.000515983
FINAL SINGLE POINT ENERGY       -78.579268514585
Dispersion correction            ... done
Dispersion correction           -0.000516337
FINAL SINGLE POINT ENERGY       -78.579108539405
Dispersion correction            ... done
Dispersion correction           -0.000516394
FINAL SINGLE POINT ENERGY       -78.578972035724
Dispersion correction            ... done
Dispersion correction           -0.000516373
FINAL SINGLE POINT ENERGY       -78.578967407883
Dispersion correction            ... done
Dispersion correction           -0.000516335
FINAL SINGLE POINT ENERGY       -78.578976336385
Dispersion correction            ... done
                    ***********************HURRAY********************

CARTESIAN COORDINATES (ANGSTROEM)
---------------------------------
  C     -0.652107   -0.052138   -0.000812
  C      0.652038    0.052133    0.000846
  H     -1.228393    0.004239   -0.916404
  H     -1.213697   -0.196023    0.914253
  H      1.213628    0.196018   -0.914219
  H      1.228323   -0.004245    0.916438

 Multiplicity           Mult            ....    1
 Number of Electrons    NEL             ....   16
 Basis Dimension        Dim             ....  184

ORBITAL ENERGIES
----------------

  NO   OCC          E(Eh)            E(eV)
   0   2.0000     -10.019129      -272.6344
   1   2.0000     -10.018181      -272.6086
   2   2.0000      -0.732995       -19.9458
   3   2.0000      -0.548353       -14.9214
   4   2.0000      -0.440255       -11.9799
   5   2.0000      -0.392471       -10.6797
   6   2.0000      -0.322989        -8.7890
   7   2.0000      -0.258479        -7.0336
   8   0.0000      -0.022924        -0.6238
   9   0.0000       0.014375         0.3912
  10   0.0000       0.030620         0.8332
  11   0.0000       0.032767         0.8916
  12   0.0000       0.058552         1.5933

MULLIKEN ATOMIC CHARGES
-----------------------
   0 C :   -0.847546
   1 C :   -0.847542
   2 H :    0.437439
   3 H :    0.410108
   4 H :    0.410089
   5 H :    0.437452
Sum of atomic charges:   -0.0000000

LOEWDIN ATOMIC CHARGES
----------------------
   0 C :    0.459222
   1 C :    0.459222
   2 H :   -0.229512
   3 H :   -0.229710
   4 H :   -0.229710
   5 H :   -0.229512

  Mayer bond orders larger than 0.100000
B(  0-C ,  1-C ) :   1.7697 B(  0-C ,  2-H ) :   0.7357 B(  0-C ,  3-H ) :   0.7563
B(  1-C ,  4-H ) :   0.7563 B(  1-C ,  5-H ) :   0.7357

Dispersion correction           -0.000516334
FINAL SINGLE POINT ENERGY       -78.578978376291

DIPOLE MOMENT
-------------
                                X             Y             Z
Electronic contribution:     -0.00000      -0.00000      -0.00000
Nuclear contribution   :      0.00000       0.00000       0.00000
                        -----------------------------------------
Total Dipole Moment    :     -0.00000       0.00000       0.00000
                        -----------------------------------------
Magnitude (a.u.)       :      0.00000
Magnitude (Debye)      :      0.00000

VIBRATIONAL FREQUENCIES
-----------------------

Scaling factor for frequencies =  1.000000000 (already applied!)

   0:         0.00 cm**-1
   1:         0.00 cm**-1
   2:         0.00 cm**-1
   3:         0.00 cm**-1
   4:         0.00 cm**-1
   5:         0.00 cm**-1
   6:       832.84 cm**-1
   7:       960.73 cm**-1
   8:      1002.60 cm**-1
   9:      1077.15 cm**-1
  10:      1252.66 cm**-1
  11:      1375.72 cm**-1
  12:      1470.01 cm**-1
  13:      1704.88 cm**-1
  14:      3122.03 cm**-1
  15:      3133.35 cm**-1
  16:      3168.59 cm**-1
  17:      3205.23 cm**-1

IR SPECTRUM
-----------

 Mode    freq (cm**-1)   T**2         TX         TY         TZ
-------------------------------------------------------------------
   6:       832.84    0.066435  (  0.027737   0.253289  -0.038867)
   7:       960.73    0.000000  ( -0.000053  -0.000010   0.000039)
   8:      1002.60  105.901935  ( -0.628961  10.220279   1.025787)
   9:      1077.15    0.095226  (  0.248611   0.173219   0.058432)
  10:      1252.66    0.000000  ( -0.000054   0.000099   0.000036)
  11:      1375.72    0.000000  (  0.000017  -0.000008  -0.000000)
  12:      1470.01    8.347120  (  2.873687   0.298330  -0.006366)
  13:      1704.88    0.000000  (  0.000009   0.000002   0.000010)
  14:      3122.03   34.305942  ( -5.830125  -0.528001   0.191832)
  15:      3133.35    0.000000  ( -0.000422  -0.000044   0.000054)
  16:      3168.59    0.000000  ( -0.000537  -0.000034  -0.000064)
  17:      3205.23   19.869741  ( -0.124873  -0.476775   4.430218)

--------------------------
THERMOCHEMISTRY AT 298.15K
--------------------------

Temperature         ... 298.15 K
Pressure            ... 1.00 atm
Total Mass          ... 28.05 AMU

Throughout the following assumptions are being made:
  (1) The electronic state is orbitally nondegenerate
  (2) There are no thermally accessible electronically excited states
  (3) Hindered rotations indicated by low frequency modes are not
      treated as such but are treated as vibrations and this may
      cause some error
  (4) All equations used are the standard statistical mechanics
      equations for an ideal gas
  (5) All vibrations are strictly harmonic

freq.     832.84  E(vib)   ...       0.04
freq.     960.73  E(vib)   ...       0.03
freq.    1002.60  E(vib)   ...       0.02
freq.    1077.15  E(vib)   ...       0.02
freq.    1252.66  E(vib)   ...       0.01
freq.    1375.72  E(vib)   ...       0.01
freq.    1470.01  E(vib)   ...       0.00
freq.    1704.88  E(vib)   ...       0.00
freq.    3122.03  E(vib)   ...       0.00
freq.    3133.35  E(vib)   ...       0.00
freq.    3168.59  E(vib)   ...       0.00
freq.    3205.23  E(vib)   ...       0.00

------------
INNER ENERGY
------------

The inner energy is: U= E(el) + E(ZPE) + E(vib) + E(rot) + E(trans)
    E(el)   - is the total energy from the electronic structure calculation
              = E(kin-el) + E(nuc-el) + E(el-el) + E(nuc-nuc)
    E(ZPE)  - the the zero temperature vibrational energy from the frequency calculation
    E(vib)  - the the finite temperature correction to E(ZPE) due to population
              of excited vibrational states
    E(rot)  - is the rotational thermal energy
    E(trans)- is the translational thermal energy

Summary of contributions to the inner energy U:
Electronic energy                ...    -78.57897853 Eh
Zero point energy                ...      0.05081631 Eh      31.89 kcal/mol
Thermal vibrational correction   ...      0.00020550 Eh       0.13 kcal/mol
Thermal rotational correction    ...      0.00141627 Eh       0.89 kcal/mol
Thermal translational correction ...      0.00141627 Eh       0.89 kcal/mol
-----------------------------------------------------------------------
Total thermal energy                    -78.52512417 Eh

Summary of corrections to the electronic energy:
(perhaps to be used in another calculation)
Total thermal correction                  0.00303805 Eh       1.91 kcal/mol
Non-thermal (ZPE) correction              0.05081631 Eh      31.89 kcal/mol
-----------------------------------------------------------------------
Total correction                          0.05385436 Eh      33.79 kcal/mol

--------
ENTHALPY
--------

The enthalpy is H = U + kB*T
                kB is Boltzmann's constant
Total free energy                 ...    -78.52512417 Eh
Thermal Enthalpy correction       ...      0.00094421 Eh       0.59 kcal/mol
-----------------------------------------------------------------------
Total Enthalpy                    ...    -78.52417996 Eh

Note: Rotational entropy computed according to Herzberg
Infrared and Raman Spectra, Chapter V,1, Van Nostrand Reinhold, 1945
Point Group:  Ci, Symmetry Number:   1
Rotational constants in cm-1:     4.930915     1.032459     0.853706

Vibrational entropy computed according to the QRRHO of S. Grimme
Chem.Eur.J. 2012 18 9955

-------
ENTROPY
-------

The entropy contributions are T*S = T*(S(el)+S(vib)+S(rot)+S(trans))
     S(el)   - electronic entropy
     S(vib)  - vibrational entropy
     S(rot)  - rotational entropy
     S(trans)- translational entropy
The entropies will be listed as mutliplied by the temperature to get
units of energy

Electronic entropy                ...      0.00000000 Eh      0.00 kcal/mol
Vibrational entropy               ...      0.00024921 Eh      0.16 kcal/mol
Rotational entropy                ...      0.00881717 Eh      5.53 kcal/mol
Translational entropy             ...      0.01707111 Eh     10.71 kcal/mol
-----------------------------------------------------------------------
Final entropy term                ...      0.02613748 Eh     16.40 kcal/mol

In case the symmetry of your molecule has not been determined correctly
or in case you have a reason to use a different symmetry number we print
out the resulting rotational entropy values for sn=1,12 :
 --------------------------------------------------------
|  sn= 1 | S(rot)=       0.00881717 Eh      5.53 kcal/mol|
|  sn= 2 | S(rot)=       0.00816271 Eh      5.12 kcal/mol|
|  sn= 3 | S(rot)=       0.00777988 Eh      4.88 kcal/mol|
|  sn= 4 | S(rot)=       0.00750825 Eh      4.71 kcal/mol|
|  sn= 5 | S(rot)=       0.00729757 Eh      4.58 kcal/mol|
|  sn= 6 | S(rot)=       0.00712542 Eh      4.47 kcal/mol|
|  sn= 7 | S(rot)=       0.00697988 Eh      4.38 kcal/mol|
|  sn= 8 | S(rot)=       0.00685380 Eh      4.30 kcal/mol|
|  sn= 9 | S(rot)=       0.00674259 Eh      4.23 kcal/mol|
|  sn=10 | S(rot)=       0.00664311 Eh      4.17 kcal/mol|
|  sn=11 | S(rot)=       0.00655312 Eh      4.11 kcal/mol|
|  sn=12 | S(rot)=       0.00647097 Eh      4.06 kcal/mol|
 --------------------------------------------------------

-------------------
GIBBS FREE ENERGY
-------------------

The Gibbs free energy is G = H - T*S

Total enthalpy                    ...    -78.52417996 Eh
Total entropy correction          ...     -0.02613748 Eh    -16.40 kcal/mol
-----------------------------------------------------------------------
Final Gibbs free energy         ...    -78.55031744 Eh

For completeness - the Gibbs free energy minus the electronic energy
G-E(el)                           ...      0.02866108 Eh     17.99 kcal/mol

                             ****ORCA TERMINATED NORMALLY****
TOTAL RUN TIME: 0 days 0 hours 0 minutes 46 seconds 682 msec
