                         Program Version 4.2.0 -  RELEASE  -
|  1> #
|  2> # 04_CCl2 scanfunc/aug-cc-pvt(+d)z
|  3> #
|  4> ! scanfunc d3bj aug-cc-pvt(+d)z def2/j opt xyzfile numfreq
|  5>
|  6> *xyz 0 1
|  7> C           -0.000001096         -0.034087471          0.023432751
|  8> Cl          -0.000006529          0.957613518         -1.373095207
|  9> Cl           0.000007625          0.959794548          1.418391908
| 10> *
| 11>
| 12> %pal
| 13> nprocs 24
| 14> end
| 15>
| 16>
| 17>                          ****END OF INPUT****
 Total Charge           Charge          ....    0
 Multiplicity           Mult            ....    1
 Number of Electrons    NEL             ....   40
Dispersion correction           -0.000430854
FINAL SINGLE POINT ENERGY      -958.427899772114
Dispersion correction            ... done
Dispersion correction           -0.000435166
FINAL SINGLE POINT ENERGY      -958.401024667116
Dispersion correction            ... done
Dispersion correction           -0.000434563
FINAL SINGLE POINT ENERGY      -958.410717463992
Dispersion correction            ... done
FINAL SINGLE POINT ENERGY      -958.408394201366
Dispersion correction            ... done
Dispersion correction           -0.000434747
FINAL SINGLE POINT ENERGY      -958.408208475476
Dispersion correction            ... done
Dispersion correction           -0.000434748
FINAL SINGLE POINT ENERGY      -958.408194741748
Dispersion correction            ... done
                    ***********************HURRAY********************

CARTESIAN COORDINATES (ANGSTROEM)
---------------------------------
  C     -0.000001   -0.115309    0.023484
  Cl    -0.000006    0.998342   -1.215363
  Cl     0.000007    1.000288    1.260609

 Multiplicity           Mult            ....    1
 Number of Electrons    NEL             ....   40
 Basis Dimension        Dim             ....  156

ORBITAL ENERGIES
----------------

  NO   OCC          E(Eh)            E(eV)
   0   2.0000    -101.154697     -2752.5592
   1   2.0000    -101.154678     -2752.5587
   2   2.0000     -10.163473      -276.5622
   3   2.0000      -9.403391      -255.8793
   4   2.0000      -9.403376      -255.8789
   5   2.0000      -7.139506      -194.2758
   6   2.0000      -7.139490      -194.2754
   7   2.0000      -7.135165      -194.1577
   8   2.0000      -7.135151      -194.1573
   9   2.0000      -7.129591      -194.0060
  10   2.0000      -7.129574      -194.0056
  11   2.0000      -0.940475       -25.5916
  12   2.0000      -0.817906       -22.2564
  13   2.0000      -0.585296       -15.9267
  14   2.0000      -0.448984       -12.2175
  15   2.0000      -0.414660       -11.2835
  16   2.0000      -0.414113       -11.2686
  17   2.0000      -0.328382        -8.9357
  18   2.0000      -0.278392        -7.5754
  19   2.0000      -0.255481        -6.9520
  20   0.0000      -0.155028        -4.2185
  21   0.0000      -0.019351        -0.5266
  22   0.0000       0.012874         0.3503
  23   0.0000       0.024139         0.6568
  24   0.0000       0.057625         1.5681

MULLIKEN ATOMIC CHARGES
-----------------------
   0 C :   -0.308055
   1 Cl:    0.153916
   2 Cl:    0.154140
Sum of atomic charges:   -0.0000000

LOEWDIN ATOMIC CHARGES
----------------------
   0 C :   -1.353522
   1 Cl:    0.676784
   2 Cl:    0.676738

  Mayer bond orders larger than 0.100000
B(  0-C ,  1-Cl) :   1.0945 B(  0-C ,  2-Cl) :   1.0940

Dispersion correction           -0.000434748
FINAL SINGLE POINT ENERGY      -958.408197986919

DIPOLE MOMENT
-------------
                                X             Y             Z
Electronic contribution:      0.00000       0.93410      -0.00085
Nuclear contribution   :     -0.00000      -0.43342       0.00033
                        -----------------------------------------
Total Dipole Moment    :      0.00000       0.50067      -0.00051
                        -----------------------------------------
Magnitude (a.u.)       :      0.50067
Magnitude (Debye)      :      1.27261

VIBRATIONAL FREQUENCIES
-----------------------

Scaling factor for frequencies =  1.000000000 (already applied!)

   0:         0.00 cm**-1
   1:         0.00 cm**-1
   2:         0.00 cm**-1
   3:         0.00 cm**-1
   4:         0.00 cm**-1
   5:         0.00 cm**-1
   6:       566.27 cm**-1
   7:       736.78 cm**-1
   8:       815.25 cm**-1

IR SPECTRUM
-----------

 Mode    freq (cm**-1)   T**2         TX         TY         TZ
-------------------------------------------------------------------
   6:       566.27    0.001007  (  0.000000  -0.031564   0.003210)
   7:       736.78  204.988625  ( -0.000063  -0.039907 -14.317368)
   8:       815.25   30.777963  (  0.000001  -5.547421   0.063898)

--------------------------
THERMOCHEMISTRY AT 298.15K
--------------------------

Temperature         ... 298.15 K
Pressure            ... 1.00 atm
Total Mass          ... 82.92 AMU

Throughout the following assumptions are being made:
  (1) The electronic state is orbitally nondegenerate
  (2) There are no thermally accessible electronically excited states
  (3) Hindered rotations indicated by low frequency modes are not
      treated as such but are treated as vibrations and this may
      cause some error
  (4) All equations used are the standard statistical mechanics
      equations for an ideal gas
  (5) All vibrations are strictly harmonic

freq.     566.27  E(vib)   ...       0.11
freq.     736.78  E(vib)   ...       0.06
freq.     815.25  E(vib)   ...       0.05

------------
INNER ENERGY
------------

The inner energy is: U= E(el) + E(ZPE) + E(vib) + E(rot) + E(trans)
    E(el)   - is the total energy from the electronic structure calculation
              = E(kin-el) + E(nuc-el) + E(el-el) + E(nuc-nuc)
    E(ZPE)  - the the zero temperature vibrational energy from the frequency calculation
    E(vib)  - the the finite temperature correction to E(ZPE) due to population
              of excited vibrational states
    E(rot)  - is the rotational thermal energy
    E(trans)- is the translational thermal energy

Summary of contributions to the inner energy U:
Electronic energy                ...   -958.40819806 Eh
Zero point energy                ...      0.00482584 Eh       3.03 kcal/mol
Thermal vibrational correction   ...      0.00035238 Eh       0.22 kcal/mol
Thermal rotational correction    ...      0.00141627 Eh       0.89 kcal/mol
Thermal translational correction ...      0.00141627 Eh       0.89 kcal/mol
-----------------------------------------------------------------------
Total thermal energy                   -958.40018731 Eh

Summary of corrections to the electronic energy:
(perhaps to be used in another calculation)
Total thermal correction                  0.00318492 Eh       2.00 kcal/mol
Non-thermal (ZPE) correction              0.00482584 Eh       3.03 kcal/mol
-----------------------------------------------------------------------
Total correction                          0.00801076 Eh       5.03 kcal/mol

--------
ENTHALPY
--------

The enthalpy is H = U + kB*T
                kB is Boltzmann's constant
Total free energy                 ...   -958.40018731 Eh
Thermal Enthalpy correction       ...      0.00094421 Eh       0.59 kcal/mol
-----------------------------------------------------------------------
Total Enthalpy                    ...   -958.39924310 Eh

Note: Rotational entropy computed according to Herzberg
Infrared and Raman Spectra, Chapter V,1, Van Nostrand Reinhold, 1945
Point Group:  Cs, Symmetry Number:   1
Rotational constants in cm-1:     1.321056     0.155125     0.138824

Vibrational entropy computed according to the QRRHO of S. Grimme
Chem.Eur.J. 2012 18 9955

-------
ENTROPY
-------

The entropy contributions are T*S = T*(S(el)+S(vib)+S(rot)+S(trans))
     S(el)   - electronic entropy
     S(vib)  - vibrational entropy
     S(rot)  - rotational entropy
     S(trans)- translational entropy
The entropies will be listed as mutliplied by the temperature to get
units of energy

Electronic entropy                ...      0.00000000 Eh      0.00 kcal/mol
Vibrational entropy               ...      0.00046235 Eh      0.29 kcal/mol
Rotational entropy                ...      0.01119128 Eh      7.02 kcal/mol
Translational entropy             ...      0.01860593 Eh     11.68 kcal/mol
-----------------------------------------------------------------------
Final entropy term                ...      0.03025956 Eh     18.99 kcal/mol

In case the symmetry of your molecule has not been determined correctly
or in case you have a reason to use a different symmetry number we print
out the resulting rotational entropy values for sn=1,12 :
 --------------------------------------------------------
|  sn= 1 | S(rot)=       0.01119128 Eh      7.02 kcal/mol|
|  sn= 2 | S(rot)=       0.01053683 Eh      6.61 kcal/mol|
|  sn= 3 | S(rot)=       0.01015399 Eh      6.37 kcal/mol|
|  sn= 4 | S(rot)=       0.00988237 Eh      6.20 kcal/mol|
|  sn= 5 | S(rot)=       0.00967168 Eh      6.07 kcal/mol|
|  sn= 6 | S(rot)=       0.00949954 Eh      5.96 kcal/mol|
|  sn= 7 | S(rot)=       0.00935399 Eh      5.87 kcal/mol|
|  sn= 8 | S(rot)=       0.00922791 Eh      5.79 kcal/mol|
|  sn= 9 | S(rot)=       0.00911671 Eh      5.72 kcal/mol|
|  sn=10 | S(rot)=       0.00901723 Eh      5.66 kcal/mol|
|  sn=11 | S(rot)=       0.00892724 Eh      5.60 kcal/mol|
|  sn=12 | S(rot)=       0.00884508 Eh      5.55 kcal/mol|
 --------------------------------------------------------

-------------------
GIBBS FREE ENERGY
-------------------

The Gibbs free energy is G = H - T*S

Total enthalpy                    ...   -958.39924310 Eh
Total entropy correction          ...     -0.03025956 Eh    -18.99 kcal/mol
-----------------------------------------------------------------------
Final Gibbs free energy         ...   -958.42950266 Eh

For completeness - the Gibbs free energy minus the electronic energy
G-E(el)                           ...     -0.02130460 Eh    -13.37 kcal/mol

                             ****ORCA TERMINATED NORMALLY****
TOTAL RUN TIME: 0 days 0 hours 0 minutes 44 seconds 973 msec
