                         Program Version 4.2.0 -  RELEASE  -
|  1> #
|  2> # 05_CF2 scanfunc/aug-cc-pvt(+d)z
|  3> #
|  4> ! scanfunc d3bj aug-cc-pvt(+d)z def2/j opt xyzfile numfreq
|  5>
|  6> *xyz 0 1
|  7> C           -0.000000060          0.136363107         -0.000000094
|  8> F            0.000000126          0.931818632         -1.030127802
|  9> F           -0.000000065          0.931818256          1.030127896
| 10> *
| 11>
| 12> %pal
| 13> nprocs 24
| 14> end
| 15>
| 16>
| 17>                          ****END OF INPUT****
 Total Charge           Charge          ....    0
 Multiplicity           Mult            ....    1
 Number of Electrons    NEL             ....   24
Dispersion correction           -0.000140765
FINAL SINGLE POINT ENERGY      -237.733768223054
Dispersion correction            ... done
Dispersion correction           -0.000140786
FINAL SINGLE POINT ENERGY      -237.717323815532
Dispersion correction            ... done
Dispersion correction           -0.000140795
FINAL SINGLE POINT ENERGY      -237.729620552410
Dispersion correction            ... done
FINAL SINGLE POINT ENERGY      -237.728358913676
Dispersion correction            ... done
Dispersion correction           -0.000140793
FINAL SINGLE POINT ENERGY      -237.727895705546
Dispersion correction            ... done
Dispersion correction           -0.000140793
FINAL SINGLE POINT ENERGY      -237.727897743189
Dispersion correction            ... done
                    ***********************HURRAY********************

CARTESIAN COORDINATES (ANGSTROEM)
---------------------------------
  C     -0.000000    0.082075   -0.000000
  F      0.000000    0.958963   -0.976261
  F     -0.000000    0.958962    0.976261

 Multiplicity           Mult            ....    1
 Number of Electrons    NEL             ....   24
 Basis Dimension        Dim             ....  138

ORBITAL ENERGIES
----------------

  NO   OCC          E(Eh)            E(eV)
   0   2.0000     -24.525862      -667.3826
   1   2.0000     -24.525859      -667.3825
   2   2.0000     -10.221483      -278.1407
   3   2.0000      -1.311469       -35.6869
   4   2.0000      -1.219258       -33.1777
   5   2.0000      -0.673953       -18.3392
   6   2.0000      -0.556871       -15.1532
   7   2.0000      -0.523679       -14.2500
   8   2.0000      -0.515459       -14.0263
   9   2.0000      -0.441080       -12.0024
  10   2.0000      -0.399271       -10.8647
  11   2.0000      -0.297421        -8.0932
  12   0.0000      -0.129903        -3.5348
  13   0.0000       0.035663         0.9705
  14   0.0000       0.042867         1.1665
  15   0.0000       0.067989         1.8501
  16   0.0000       0.077162         2.0997

MULLIKEN ATOMIC CHARGES
-----------------------
   0 C :    0.281446
   1 F :   -0.140723
   2 F :   -0.140723
Sum of atomic charges:   -0.0000000

LOEWDIN ATOMIC CHARGES
----------------------
   0 C :   -0.643805
   1 F :    0.321902
   2 F :    0.321902

  Mayer bond orders larger than 0.100000
B(  0-C ,  1-F ) :   1.0745 B(  0-C ,  2-F ) :   1.0745

Dispersion correction           -0.000140793
FINAL SINGLE POINT ENERGY      -237.727930551710

DIPOLE MOMENT
-------------
                                X             Y             Z
Electronic contribution:      0.00000       0.57381       0.00000
Nuclear contribution   :     -0.00000      -0.39029      -0.00000
                        -----------------------------------------
Total Dipole Moment    :      0.00000       0.18353       0.00000
                        -----------------------------------------
Magnitude (a.u.)       :      0.18353
Magnitude (Debye)      :      0.46648

VIBRATIONAL FREQUENCIES
-----------------------

Scaling factor for frequencies =  1.000000000 (already applied!)

   0:         0.00 cm**-1
   1:         0.00 cm**-1
   2:         0.00 cm**-1
   3:         0.00 cm**-1
   4:         0.00 cm**-1
   5:         0.00 cm**-1
   6:       820.40 cm**-1
   7:       934.17 cm**-1
   8:      1150.13 cm**-1

IR SPECTRUM
-----------

 Mode    freq (cm**-1)   T**2         TX         TY         TZ
-------------------------------------------------------------------
   6:       820.40    3.491638  ( -0.000000  -1.868593   0.000085)
   7:       934.17  318.352819  (  0.000002  -0.000009 -17.842444)
   8:      1150.13  117.391783  (  0.000001  10.834749  -0.000004)

--------------------------
THERMOCHEMISTRY AT 298.15K
--------------------------

Temperature         ... 298.15 K
Pressure            ... 1.00 atm
Total Mass          ... 50.01 AMU

Throughout the following assumptions are being made:
  (1) The electronic state is orbitally nondegenerate
  (2) There are no thermally accessible electronically excited states
  (3) Hindered rotations indicated by low frequency modes are not
      treated as such but are treated as vibrations and this may
      cause some error
  (4) All equations used are the standard statistical mechanics
      equations for an ideal gas
  (5) All vibrations are strictly harmonic

freq.     820.40  E(vib)   ...       0.05
freq.     934.17  E(vib)   ...       0.03
freq.    1150.13  E(vib)   ...       0.01

------------
INNER ENERGY
------------

The inner energy is: U= E(el) + E(ZPE) + E(vib) + E(rot) + E(trans)
    E(el)   - is the total energy from the electronic structure calculation
              = E(kin-el) + E(nuc-el) + E(el-el) + E(nuc-nuc)
    E(ZPE)  - the the zero temperature vibrational energy from the frequency calculation
    E(vib)  - the the finite temperature correction to E(ZPE) due to population
              of excited vibrational states
    E(rot)  - is the rotational thermal energy
    E(trans)- is the translational thermal energy

Summary of contributions to the inner energy U:
Electronic energy                ...   -237.72793059 Eh
Zero point energy                ...      0.00661738 Eh       4.15 kcal/mol
Thermal vibrational correction   ...      0.00014061 Eh       0.09 kcal/mol
Thermal rotational correction    ...      0.00141627 Eh       0.89 kcal/mol
Thermal translational correction ...      0.00141627 Eh       0.89 kcal/mol
-----------------------------------------------------------------------
Total thermal energy                   -237.71834005 Eh

Summary of corrections to the electronic energy:
(perhaps to be used in another calculation)
Total thermal correction                  0.00297316 Eh       1.87 kcal/mol
Non-thermal (ZPE) correction              0.00661738 Eh       4.15 kcal/mol
-----------------------------------------------------------------------
Total correction                          0.00959053 Eh       6.02 kcal/mol

--------
ENTHALPY
--------

The enthalpy is H = U + kB*T
                kB is Boltzmann's constant
Total free energy                 ...   -237.71834005 Eh
Thermal Enthalpy correction       ...      0.00094421 Eh       0.59 kcal/mol
-----------------------------------------------------------------------
Total Enthalpy                    ...   -237.71739584 Eh

Note: Rotational entropy computed according to Herzberg
Infrared and Raman Spectra, Chapter V,1, Van Nostrand Reinhold, 1945
Point Group:  C2v, Symmetry Number:   2
Rotational constants in cm-1:     2.402277     0.465508     0.389945

Vibrational entropy computed according to the QRRHO of S. Grimme
Chem.Eur.J. 2012 18 9955

-------
ENTROPY
-------

The entropy contributions are T*S = T*(S(el)+S(vib)+S(rot)+S(trans))
     S(el)   - electronic entropy
     S(vib)  - vibrational entropy
     S(rot)  - rotational entropy
     S(trans)- translational entropy
The entropies will be listed as mutliplied by the temperature to get
units of energy

Electronic entropy                ...      0.00000000 Eh      0.00 kcal/mol
Vibrational entropy               ...      0.00017305 Eh      0.11 kcal/mol
Rotational entropy                ...      0.00924817 Eh      5.80 kcal/mol
Translational entropy             ...      0.01788976 Eh     11.23 kcal/mol
-----------------------------------------------------------------------
Final entropy term                ...      0.02731097 Eh     17.14 kcal/mol

In case the symmetry of your molecule has not been determined correctly
or in case you have a reason to use a different symmetry number we print
out the resulting rotational entropy values for sn=1,12 :
 --------------------------------------------------------
|  sn= 1 | S(rot)=       0.00990263 Eh      6.21 kcal/mol|
|  sn= 2 | S(rot)=       0.00924817 Eh      5.80 kcal/mol|
|  sn= 3 | S(rot)=       0.00886534 Eh      5.56 kcal/mol|
|  sn= 4 | S(rot)=       0.00859371 Eh      5.39 kcal/mol|
|  sn= 5 | S(rot)=       0.00838303 Eh      5.26 kcal/mol|
|  sn= 6 | S(rot)=       0.00821088 Eh      5.15 kcal/mol|
|  sn= 7 | S(rot)=       0.00806533 Eh      5.06 kcal/mol|
|  sn= 8 | S(rot)=       0.00793926 Eh      4.98 kcal/mol|
|  sn= 9 | S(rot)=       0.00782805 Eh      4.91 kcal/mol|
|  sn=10 | S(rot)=       0.00772857 Eh      4.85 kcal/mol|
|  sn=11 | S(rot)=       0.00763858 Eh      4.79 kcal/mol|
|  sn=12 | S(rot)=       0.00755642 Eh      4.74 kcal/mol|
 --------------------------------------------------------

-------------------
GIBBS FREE ENERGY
-------------------

The Gibbs free energy is G = H - T*S

Total enthalpy                    ...   -237.71739584 Eh
Total entropy correction          ...     -0.02731097 Eh    -17.14 kcal/mol
-----------------------------------------------------------------------
Final Gibbs free energy         ...   -237.74470682 Eh

For completeness - the Gibbs free energy minus the electronic energy
G-E(el)                           ...     -0.01677623 Eh    -10.53 kcal/mol

                             ****ORCA TERMINATED NORMALLY****
TOTAL RUN TIME: 0 days 0 hours 0 minutes 36 seconds 196 msec
