                         Program Version 4.2.0 -  RELEASE  -
|  1> #
|  2> # 06_CH4 scanfunc/aug-cc-pvt(+d)z
|  3> #
|  4> ! scanfunc d3bj aug-cc-pvt(+d)z def2/j opt xyzfile numfreq
|  5>
|  6> *xyz 0 1
|  7> C           -0.000019863          0.000010602          0.000009334
|  8> H            0.553735898          0.798934116          0.495881879
|  9> H            0.682720826         -0.812639290         -0.253504979
| 10> H           -0.777369102         -0.373181326          0.668786102
| 11> H           -0.459167758          0.386975897         -0.911172431
| 12> *
| 13>
| 14> %pal
| 15> nprocs 24
| 16> end
| 17>
| 18>
| 19>                          ****END OF INPUT****
 Total Charge           Charge          ....    0
 Multiplicity           Mult            ....    1
 Number of Electrons    NEL             ....   10
Dispersion correction           -0.000260778
FINAL SINGLE POINT ENERGY       -40.510103248936
Dispersion correction            ... done
Dispersion correction           -0.000260778
FINAL SINGLE POINT ENERGY       -40.510140124183
Dispersion correction            ... done
                    ***********************HURRAY********************

CARTESIAN COORDINATES (ANGSTROEM)
---------------------------------
  C     -0.000251   -0.000530    0.000485
  H      0.551783    0.796415    0.493745
  H      0.680296   -0.809536   -0.253019
  H     -0.774935   -0.371927    0.666639
  H     -0.456993    0.385679   -0.907850

 Multiplicity           Mult            ....    1
 Number of Electrons    NEL             ....   10
 Basis Dimension        Dim             ....  138

ORBITAL ENERGIES
----------------

  NO   OCC          E(Eh)            E(eV)
   0   2.0000      -9.999861      -272.1100
   1   2.0000      -0.659774       -17.9534
   2   2.0000      -0.361464        -9.8359
   3   2.0000      -0.360975        -9.8226
   4   2.0000      -0.360465        -9.8088
   5   0.0000       0.016163         0.4398
   6   0.0000       0.049620         1.3502
   7   0.0000       0.050410         1.3717
   8   0.0000       0.051240         1.3943
   9   0.0000       0.098230         2.6730

MULLIKEN ATOMIC CHARGES
-----------------------
   0 C :   -0.886810
   1 H :    0.222472
   2 H :    0.232720
   3 H :    0.238968
   4 H :    0.192651
Sum of atomic charges:   -0.0000000

LOEWDIN ATOMIC CHARGES
----------------------
   0 C :    0.861787
   1 H :   -0.215414
   2 H :   -0.215844
   3 H :   -0.215530
   4 H :   -0.214998

  Mayer bond orders larger than 0.100000
B(  0-C ,  1-H ) :   0.9415 B(  0-C ,  2-H ) :   0.9107 B(  0-C ,  3-H ) :   0.9021
B(  0-C ,  4-H ) :   0.9660

Dispersion correction           -0.000260778
FINAL SINGLE POINT ENERGY       -40.510139905072

DIPOLE MOMENT
-------------
                                X             Y             Z
Electronic contribution:     -0.00187      -0.00294      -0.00170
Nuclear contribution   :      0.00081       0.00193      -0.00170
                        -----------------------------------------
Total Dipole Moment    :     -0.00106      -0.00101      -0.00340
                        -----------------------------------------
Magnitude (a.u.)       :      0.00370
Magnitude (Debye)      :      0.00941

VIBRATIONAL FREQUENCIES
-----------------------

Scaling factor for frequencies =  1.000000000 (already applied!)

   0:         0.00 cm**-1
   1:         0.00 cm**-1
   2:         0.00 cm**-1
   3:         0.00 cm**-1
   4:         0.00 cm**-1
   5:         0.00 cm**-1
   6:      1322.09 cm**-1
   7:      1322.56 cm**-1
   8:      1329.15 cm**-1
   9:      1556.63 cm**-1
  10:      1561.16 cm**-1
  11:      3048.02 cm**-1
  12:      3128.01 cm**-1
  13:      3130.76 cm**-1
  14:      3135.23 cm**-1

IR SPECTRUM
-----------

 Mode    freq (cm**-1)   T**2         TX         TY         TZ
-------------------------------------------------------------------
   6:      1322.09   13.684170  (  2.306561  -0.357165   2.869909)
   7:      1322.56   12.295230  ( -0.773290   3.302283   0.890045)
   8:      1329.15   10.284174  ( -2.471948  -0.949626   1.808827)
   9:      1556.63    0.125038  (  0.161628   0.305605  -0.074296)
  10:      1561.16    0.094048  ( -0.082237   0.122137  -0.269012)
  11:      3048.02    0.007371  ( -0.017830   0.050111   0.067395)
  12:      3128.01   21.507725  (  1.925046  -3.664659   2.090979)
  13:      3130.76   18.626136  (  2.508905  -0.755773  -3.429335)
  14:      3135.23   18.489638  ( -3.225369  -2.323907  -1.638930)

--------------------------
THERMOCHEMISTRY AT 298.15K
--------------------------

Temperature         ... 298.15 K
Pressure            ... 1.00 atm
Total Mass          ... 16.04 AMU

Throughout the following assumptions are being made:
  (1) The electronic state is orbitally nondegenerate
  (2) There are no thermally accessible electronically excited states
  (3) Hindered rotations indicated by low frequency modes are not
      treated as such but are treated as vibrations and this may
      cause some error
  (4) All equations used are the standard statistical mechanics
      equations for an ideal gas
  (5) All vibrations are strictly harmonic

freq.    1322.09  E(vib)   ...       0.01
freq.    1322.56  E(vib)   ...       0.01
freq.    1329.15  E(vib)   ...       0.01
freq.    1556.63  E(vib)   ...       0.00
freq.    1561.16  E(vib)   ...       0.00
freq.    3048.02  E(vib)   ...       0.00
freq.    3128.01  E(vib)   ...       0.00
freq.    3130.76  E(vib)   ...       0.00
freq.    3135.23  E(vib)   ...       0.00

------------
INNER ENERGY
------------

The inner energy is: U= E(el) + E(ZPE) + E(vib) + E(rot) + E(trans)
    E(el)   - is the total energy from the electronic structure calculation
              = E(kin-el) + E(nuc-el) + E(el-el) + E(nuc-nuc)
    E(ZPE)  - the the zero temperature vibrational energy from the frequency calculation
    E(vib)  - the the finite temperature correction to E(ZPE) due to population
              of excited vibrational states
    E(rot)  - is the rotational thermal energy
    E(trans)- is the translational thermal energy

Summary of contributions to the inner energy U:
Electronic energy                ...    -40.51013992 Eh
Zero point energy                ...      0.04450085 Eh      27.92 kcal/mol
Thermal vibrational correction   ...      0.00003808 Eh       0.02 kcal/mol
Thermal rotational correction    ...      0.00141627 Eh       0.89 kcal/mol
Thermal translational correction ...      0.00141627 Eh       0.89 kcal/mol
-----------------------------------------------------------------------
Total thermal energy                    -40.46276844 Eh

Summary of corrections to the electronic energy:
(perhaps to be used in another calculation)
Total thermal correction                  0.00287063 Eh       1.80 kcal/mol
Non-thermal (ZPE) correction              0.04450085 Eh      27.92 kcal/mol
-----------------------------------------------------------------------
Total correction                          0.04737147 Eh      29.73 kcal/mol

--------
ENTHALPY
--------

The enthalpy is H = U + kB*T
                kB is Boltzmann's constant
Total free energy                 ...    -40.46276844 Eh
Thermal Enthalpy correction       ...      0.00094421 Eh       0.59 kcal/mol
-----------------------------------------------------------------------
Total Enthalpy                    ...    -40.46182423 Eh

Note: Only C1 symmetry has been detected, increase convergence thresholds
      if your molecule has a higher symmetry. Symmetry factor of 1.0 is
      used for the rotational entropy correction.

Note: Rotational entropy computed according to Herzberg
Infrared and Raman Spectra, Chapter V,1, Van Nostrand Reinhold, 1945
Point Group:  C1, Symmetry Number:   1
Rotational constants in cm-1:     5.306454     5.303910     5.301148

Vibrational entropy computed according to the QRRHO of S. Grimme
Chem.Eur.J. 2012 18 9955

-------
ENTROPY
-------

The entropy contributions are T*S = T*(S(el)+S(vib)+S(rot)+S(trans))
     S(el)   - electronic entropy
     S(vib)  - vibrational entropy
     S(rot)  - rotational entropy
     S(trans)- translational entropy
The entropies will be listed as mutliplied by the temperature to get
units of energy

Electronic entropy                ...      0.00000000 Eh      0.00 kcal/mol
Vibrational entropy               ...      0.00004387 Eh      0.03 kcal/mol
Rotational entropy                ...      0.00714786 Eh      4.49 kcal/mol
Translational entropy             ...      0.01627961 Eh     10.22 kcal/mol
-----------------------------------------------------------------------
Final entropy term                ...      0.02347134 Eh     14.73 kcal/mol

In case the symmetry of your molecule has not been determined correctly
or in case you have a reason to use a different symmetry number we print
out the resulting rotational entropy values for sn=1,12 :
 --------------------------------------------------------
|  sn= 1 | S(rot)=       0.00714786 Eh      4.49 kcal/mol|
|  sn= 2 | S(rot)=       0.00649340 Eh      4.07 kcal/mol|
|  sn= 3 | S(rot)=       0.00611057 Eh      3.83 kcal/mol|
|  sn= 4 | S(rot)=       0.00583895 Eh      3.66 kcal/mol|
|  sn= 5 | S(rot)=       0.00562826 Eh      3.53 kcal/mol|
|  sn= 6 | S(rot)=       0.00545611 Eh      3.42 kcal/mol|
|  sn= 7 | S(rot)=       0.00531057 Eh      3.33 kcal/mol|
|  sn= 8 | S(rot)=       0.00518449 Eh      3.25 kcal/mol|
|  sn= 9 | S(rot)=       0.00507328 Eh      3.18 kcal/mol|
|  sn=10 | S(rot)=       0.00497380 Eh      3.12 kcal/mol|
|  sn=11 | S(rot)=       0.00488381 Eh      3.06 kcal/mol|
|  sn=12 | S(rot)=       0.00480166 Eh      3.01 kcal/mol|
 --------------------------------------------------------

-------------------
GIBBS FREE ENERGY
-------------------

The Gibbs free energy is G = H - T*S

Total enthalpy                    ...    -40.46182423 Eh
Total entropy correction          ...     -0.02347134 Eh    -14.73 kcal/mol
-----------------------------------------------------------------------
Final Gibbs free energy         ...    -40.48529557 Eh

For completeness - the Gibbs free energy minus the electronic energy
G-E(el)                           ...      0.02484434 Eh     15.59 kcal/mol

                             ****ORCA TERMINATED NORMALLY****
TOTAL RUN TIME: 0 days 0 hours 0 minutes 24 seconds 842 msec
