                         Program Version 4.2.0 -  RELEASE  -
|  1> #
|  2> # 07_Cl2 scanfunc/aug-cc-pvt(+d)z
|  3> #
|  4> ! scanfunc d3bj aug-cc-pvt(+d)z def2/j opt xyzfile numfreq
|  5>
|  6> *xyz 0 1
|  7> Cl          -0.996696800          0.000000000         -0.000000015
|  8> Cl           0.996696800         -0.000000000          0.000000015
|  9> *
| 10>
| 11> %pal
| 12> nprocs 24
| 13> end
| 14>
| 15>
| 16>                          ****END OF INPUT****
 Total Charge           Charge          ....    0
 Multiplicity           Mult            ....    1
 Number of Electrons    NEL             ....   34
Dispersion correction           -0.000181518
FINAL SINGLE POINT ENERGY      -920.398827841531
Dispersion correction            ... done
Dispersion correction           -0.000181925
FINAL SINGLE POINT ENERGY      -920.385776097798
Dispersion correction            ... done
Dispersion correction           -0.000182174
FINAL SINGLE POINT ENERGY      -920.338955060643
Dispersion correction            ... done
FINAL SINGLE POINT ENERGY      -920.368922113597
FINAL SINGLE POINT ENERGY      -920.365563445883
Dispersion correction            ... done
Dispersion correction           -0.000182078
FINAL SINGLE POINT ENERGY      -920.364834786153
Dispersion correction            ... done
Dispersion correction           -0.000182078
FINAL SINGLE POINT ENERGY      -920.364869745241
Dispersion correction            ... done
                    ***********************HURRAY********************

CARTESIAN COORDINATES (ANGSTROEM)
---------------------------------
  Cl    -0.875926    0.000000   -0.000000
  Cl     0.875926    0.000000    0.000000

 Multiplicity           Mult            ....    1
 Number of Electrons    NEL             ....   34
 Basis Dimension        Dim             ....  110

ORBITAL ENERGIES
----------------

  NO   OCC          E(Eh)            E(eV)
   0   2.0000    -101.149407     -2752.4153
   1   2.0000    -101.149399     -2752.4151
   2   2.0000      -9.399565      -255.7752
   3   2.0000      -9.399372      -255.7699
   4   2.0000      -7.140034      -194.2902
   5   2.0000      -7.139162      -194.2665
   6   2.0000      -7.125969      -193.9075
   7   2.0000      -7.125969      -193.9075
   8   2.0000      -7.125900      -193.9056
   9   2.0000      -7.125900      -193.9056
  10   2.0000      -0.984328       -26.7849
  11   2.0000      -0.707599       -19.2548
  12   2.0000      -0.475731       -12.9453
  13   2.0000      -0.419517       -11.4156
  14   2.0000      -0.419517       -11.4156
  15   2.0000      -0.256448        -6.9783
  16   2.0000      -0.256448        -6.9783
  17   0.0000      -0.069091        -1.8801
  18   0.0000       0.040704         1.1076
  19   0.0000       0.060135         1.6364
  20   0.0000       0.070239         1.9113
  21   0.0000       0.070239         1.9113

MULLIKEN ATOMIC CHARGES
-----------------------
   0 Cl:    0.000000
   1 Cl:   -0.000000
Sum of atomic charges:   -0.0000000

LOEWDIN ATOMIC CHARGES
----------------------
   0 Cl:    0.000000
   1 Cl:   -0.000000

  Mayer bond orders larger than 0.100000
B(  0-Cl,  1-Cl) :   1.0310

Dispersion correction           -0.000182078
FINAL SINGLE POINT ENERGY      -920.364868620686

DIPOLE MOMENT
-------------
                                X             Y             Z
Electronic contribution:      0.00000      -0.00000      -0.00000
Nuclear contribution   :      0.00000       0.00000       0.00000
                        -----------------------------------------
Total Dipole Moment    :      0.00000      -0.00000      -0.00000
                        -----------------------------------------
Magnitude (a.u.)       :      0.00000
Magnitude (Debye)      :      0.00000

VIBRATIONAL FREQUENCIES
-----------------------

Scaling factor for frequencies =  1.000000000 (already applied!)

   0:         0.00 cm**-1
   1:         0.00 cm**-1
   2:         0.00 cm**-1
   3:         0.00 cm**-1
   4:         0.00 cm**-1
   5:       964.58 cm**-1

IR SPECTRUM
-----------

 Mode    freq (cm**-1)   T**2         TX         TY         TZ
-------------------------------------------------------------------
   5:       964.58    0.000000  (  0.000000  -0.000000   0.000000)

--------------------------
THERMOCHEMISTRY AT 298.15K
--------------------------

Temperature         ... 298.15 K
Pressure            ... 1.00 atm
Total Mass          ... 70.91 AMU
The molecule is recognized as being linear

Throughout the following assumptions are being made:
  (1) The electronic state is orbitally nondegenerate
  (2) There are no thermally accessible electronically excited states
  (3) Hindered rotations indicated by low frequency modes are not
      treated as such but are treated as vibrations and this may
      cause some error
  (4) All equations used are the standard statistical mechanics
      equations for an ideal gas
  (5) All vibrations are strictly harmonic

freq.     964.58  E(vib)   ...       0.03

------------
INNER ENERGY
------------

The inner energy is: U= E(el) + E(ZPE) + E(vib) + E(rot) + E(trans)
    E(el)   - is the total energy from the electronic structure calculation
              = E(kin-el) + E(nuc-el) + E(el-el) + E(nuc-nuc)
    E(ZPE)  - the the zero temperature vibrational energy from the frequency calculation
    E(vib)  - the the finite temperature correction to E(ZPE) due to population
              of excited vibrational states
    E(rot)  - is the rotational thermal energy
    E(trans)- is the translational thermal energy

Summary of contributions to the inner energy U:
Electronic energy                ...   -920.36486862 Eh
Zero point energy                ...      0.00219746 Eh       1.38 kcal/mol
Thermal vibrational correction   ...      0.00004223 Eh       0.03 kcal/mol
Thermal rotational correction    ...      0.00094418 Eh       0.59 kcal/mol
Thermal translational correction ...      0.00141627 Eh       0.89 kcal/mol
-----------------------------------------------------------------------
Total thermal energy                   -920.36026848 Eh

Summary of corrections to the electronic energy:
(perhaps to be used in another calculation)
Total thermal correction                  0.00240268 Eh       1.51 kcal/mol
Non-thermal (ZPE) correction              0.00219746 Eh       1.38 kcal/mol
-----------------------------------------------------------------------
Total correction                          0.00460015 Eh       2.89 kcal/mol

--------
ENTHALPY
--------

The enthalpy is H = U + kB*T
                kB is Boltzmann's constant
Total free energy                 ...   -920.36026848 Eh
Thermal Enthalpy correction       ...      0.00094421 Eh       0.59 kcal/mol
-----------------------------------------------------------------------
Total Enthalpy                    ...   -920.35932427 Eh

Note: Rotational entropy computed according to Herzberg
Infrared and Raman Spectra, Chapter V,1, Van Nostrand Reinhold, 1945
Point Group:  Dinfh, Symmetry Number:   2
Rotational constants in cm-1:     0.000000     0.309870     0.309870

Vibrational entropy computed according to the QRRHO of S. Grimme
Chem.Eur.J. 2012 18 9955

-------
ENTROPY
-------

The entropy contributions are T*S = T*(S(el)+S(vib)+S(rot)+S(trans))
     S(el)   - electronic entropy
     S(vib)  - vibrational entropy
     S(rot)  - rotational entropy
     S(trans)- translational entropy
The entropies will be listed as mutliplied by the temperature to get
units of energy

Electronic entropy                ...      0.00000000 Eh      0.00 kcal/mol
Vibrational entropy               ...      0.00005129 Eh      0.03 kcal/mol
Rotational entropy                ...      0.00643201 Eh      4.04 kcal/mol
Translational entropy             ...      0.01838431 Eh     11.54 kcal/mol
-----------------------------------------------------------------------
Final entropy term                ...      0.02486761 Eh     15.60 kcal/mol

In case the symmetry of your molecule has not been determined correctly
or in case you have a reason to use a different symmetry number we print
out the resulting rotational entropy values for sn=1,12 :
 --------------------------------------------------------
|  sn= 1 | S(rot)=             -inf Eh      -inf kcal/mol|
|  sn= 2 | S(rot)=             -inf Eh      -inf kcal/mol|
|  sn= 3 | S(rot)=             -inf Eh      -inf kcal/mol|
|  sn= 4 | S(rot)=             -inf Eh      -inf kcal/mol|
|  sn= 5 | S(rot)=             -inf Eh      -inf kcal/mol|
|  sn= 6 | S(rot)=             -inf Eh      -inf kcal/mol|
|  sn= 7 | S(rot)=             -inf Eh      -inf kcal/mol|
|  sn= 8 | S(rot)=             -inf Eh      -inf kcal/mol|
|  sn= 9 | S(rot)=             -inf Eh      -inf kcal/mol|
|  sn=10 | S(rot)=             -inf Eh      -inf kcal/mol|
|  sn=11 | S(rot)=             -inf Eh      -inf kcal/mol|
|  sn=12 | S(rot)=             -inf Eh      -inf kcal/mol|
 --------------------------------------------------------

-------------------
GIBBS FREE ENERGY
-------------------

The Gibbs free energy is G = H - T*S

Total enthalpy                    ...   -920.35932427 Eh
Total entropy correction          ...     -0.02486761 Eh    -15.60 kcal/mol
-----------------------------------------------------------------------
Final Gibbs free energy         ...   -920.38419187 Eh

For completeness - the Gibbs free energy minus the electronic energy
G-E(el)                           ...     -0.01932325 Eh    -12.13 kcal/mol

                             ****ORCA TERMINATED NORMALLY****
TOTAL RUN TIME: 0 days 0 hours 0 minutes 33 seconds 744 msec
