                         Program Version 4.2.0 -  RELEASE  -
|  1> #
|  2> # 08_ClCN scanfunc/aug-cc-pvt(+d)z
|  3> #
|  4> ! scanfunc d3bj aug-cc-pvt(+d)z def2/j opt xyzfile numfreq
|  5>
|  6> *xyz 0 1
|  7> Cl          0.000000000          0.000000000          1.411403479
|  8> C           0.000000000          0.000000000         -0.154728403
|  9> N           0.000000000          0.000000000         -1.256675070
| 10> *
| 11>
| 12> %pal
| 13> nprocs 24
| 14> end
| 15>
| 16>
| 17>                          ****END OF INPUT****
 Total Charge           Charge          ....    0
 Multiplicity           Mult            ....    1
 Number of Electrons    NEL             ....   30
Dispersion correction           -0.000339077
FINAL SINGLE POINT ENERGY      -553.023372421427
Dispersion correction            ... done
Dispersion correction           -0.000339124
FINAL SINGLE POINT ENERGY      -553.025652124198
Dispersion correction            ... done
Dispersion correction           -0.000339063
FINAL SINGLE POINT ENERGY      -553.025723316921
Dispersion correction            ... done
FINAL SINGLE POINT ENERGY      -553.026194713345
Dispersion correction            ... done
Dispersion correction           -0.000338995
FINAL SINGLE POINT ENERGY      -553.026377359440
Dispersion correction            ... done
Dispersion correction           -0.000338998
FINAL SINGLE POINT ENERGY      -553.026380627567
Dispersion correction            ... done
                    ***********************HURRAY********************

CARTESIAN COORDINATES (ANGSTROEM)
---------------------------------
  Cl     0.000000    0.000000    1.402135
  C     -0.000000   -0.000000   -0.127239
  N      0.000000    0.000000   -1.274896

 Multiplicity           Mult            ....    1
 Number of Electrons    NEL             ....   30
 Basis Dimension        Dim             ....  147

ORBITAL ENERGIES
----------------

  NO   OCC          E(Eh)            E(eV)
   0   2.0000    -101.198004     -2753.7377
   1   2.0000     -14.151442      -385.0803
   2   2.0000     -10.116749      -275.2907
   3   2.0000      -9.447016      -257.0664
   4   2.0000      -7.184838      -195.5094
   5   2.0000      -7.175002      -195.2417
   6   2.0000      -7.175002      -195.2417
   7   2.0000      -0.958548       -26.0834
   8   2.0000      -0.878533       -23.9061
   9   2.0000      -0.567333       -15.4379
  10   2.0000      -0.433452       -11.7948
  11   2.0000      -0.433452       -11.7948
  12   2.0000      -0.351811        -9.5733
  13   2.0000      -0.306837        -8.3495
  14   2.0000      -0.306837        -8.3495
  15   0.0000      -0.019870        -0.5407
  16   0.0000      -0.019870        -0.5407
  17   0.0000      -0.014277        -0.3885
  18   0.0000       0.016677         0.4538
  19   0.0000       0.050343         1.3699

MULLIKEN ATOMIC CHARGES
-----------------------
   0 Cl:    0.212492
   1 C :    0.008197
   2 N :   -0.220689
Sum of atomic charges:    0.0000000

LOEWDIN ATOMIC CHARGES
----------------------
   0 Cl:    1.081457
   1 C :   -1.186706
   2 N :    0.105249

  Mayer bond orders larger than 0.100000
B(  0-Cl,  1-C ) :   1.0881 B(  0-Cl,  2-N ) :   0.1646 B(  1-C ,  2-N ) :   2.5453

Dispersion correction           -0.000338999
FINAL SINGLE POINT ENERGY      -553.026361110902

DIPOLE MOMENT
-------------
                                X             Y             Z
Electronic contribution:     -0.00000      -0.00000       2.49580
Nuclear contribution   :     -0.00000      -0.00000      -1.22957
                        -----------------------------------------
Total Dipole Moment    :     -0.00000      -0.00000       1.26623
                        -----------------------------------------
Magnitude (a.u.)       :      1.26623
Magnitude (Debye)      :      3.21850

VIBRATIONAL FREQUENCIES
-----------------------

Scaling factor for frequencies =  1.000000000 (already applied!)

   0:         0.00 cm**-1
   1:         0.00 cm**-1
   2:         0.00 cm**-1
   3:         0.00 cm**-1
   4:         0.00 cm**-1
   5:       399.61 cm**-1
   6:       399.61 cm**-1
   7:       842.86 cm**-1
   8:      2248.57 cm**-1

IR SPECTRUM
-----------

 Mode    freq (cm**-1)   T**2         TX         TY         TZ
-------------------------------------------------------------------
   5:       399.61    2.137245  ( -0.216668   1.445787  -0.000002)
   6:       399.61    2.137231  ( -1.445781  -0.216677  -0.000004)
   7:       842.86    6.037108  (  0.000001  -0.000001  -2.457053)
   8:      2248.57   77.022729  (  0.000002   0.000001   8.776259)

--------------------------
THERMOCHEMISTRY AT 298.15K
--------------------------

Temperature         ... 298.15 K
Pressure            ... 1.00 atm
Total Mass          ... 61.47 AMU
The molecule is recognized as being linear

Throughout the following assumptions are being made:
  (1) The electronic state is orbitally nondegenerate
  (2) There are no thermally accessible electronically excited states
  (3) Hindered rotations indicated by low frequency modes are not
      treated as such but are treated as vibrations and this may
      cause some error
  (4) All equations used are the standard statistical mechanics
      equations for an ideal gas
  (5) All vibrations are strictly harmonic

freq.     399.61  E(vib)   ...       0.19
freq.     399.61  E(vib)   ...       0.19
freq.     842.86  E(vib)   ...       0.04
freq.    2248.57  E(vib)   ...       0.00

------------
INNER ENERGY
------------

The inner energy is: U= E(el) + E(ZPE) + E(vib) + E(rot) + E(trans)
    E(el)   - is the total energy from the electronic structure calculation
              = E(kin-el) + E(nuc-el) + E(el-el) + E(nuc-nuc)
    E(ZPE)  - the the zero temperature vibrational energy from the frequency calculation
    E(vib)  - the the finite temperature correction to E(ZPE) due to population
              of excited vibrational states
    E(rot)  - is the rotational thermal energy
    E(trans)- is the translational thermal energy

Summary of contributions to the inner energy U:
Electronic energy                ...   -553.02636113 Eh
Zero point energy                ...      0.00886357 Eh       5.56 kcal/mol
Thermal vibrational correction   ...      0.00068661 Eh       0.43 kcal/mol
Thermal rotational correction    ...      0.00094418 Eh       0.59 kcal/mol
Thermal translational correction ...      0.00141627 Eh       0.89 kcal/mol
-----------------------------------------------------------------------
Total thermal energy                   -553.01445050 Eh

Summary of corrections to the electronic energy:
(perhaps to be used in another calculation)
Total thermal correction                  0.00304706 Eh       1.91 kcal/mol
Non-thermal (ZPE) correction              0.00886357 Eh       5.56 kcal/mol
-----------------------------------------------------------------------
Total correction                          0.01191063 Eh       7.47 kcal/mol

--------
ENTHALPY
--------

The enthalpy is H = U + kB*T
                kB is Boltzmann's constant
Total free energy                 ...   -553.01445050 Eh
Thermal Enthalpy correction       ...      0.00094421 Eh       0.59 kcal/mol
-----------------------------------------------------------------------
Total Enthalpy                    ...   -553.01350629 Eh

Note: Rotational entropy computed according to Herzberg
Infrared and Raman Spectra, Chapter V,1, Van Nostrand Reinhold, 1945
Point Group:  Cinfv, Symmetry Number:   1
Rotational constants in cm-1:     0.000000     0.216953     0.216953

Vibrational entropy computed according to the QRRHO of S. Grimme
Chem.Eur.J. 2012 18 9955

-------
ENTROPY
-------

The entropy contributions are T*S = T*(S(el)+S(vib)+S(rot)+S(trans))
     S(el)   - electronic entropy
     S(vib)  - vibrational entropy
     S(rot)  - rotational entropy
     S(trans)- translational entropy
The entropies will be listed as mutliplied by the temperature to get
units of energy

Electronic entropy                ...      0.00000000 Eh      0.00 kcal/mol
Vibrational entropy               ...      0.00100155 Eh      0.63 kcal/mol
Rotational entropy                ...      0.00742304 Eh      4.66 kcal/mol
Translational entropy             ...      0.01818208 Eh     11.41 kcal/mol
-----------------------------------------------------------------------
Final entropy term                ...      0.02660667 Eh     16.70 kcal/mol

In case the symmetry of your molecule has not been determined correctly
or in case you have a reason to use a different symmetry number we print
out the resulting rotational entropy values for sn=1,12 :
 --------------------------------------------------------
|  sn= 1 | S(rot)=      -0.00589566 Eh     -3.70 kcal/mol|
|  sn= 2 | S(rot)=      -0.00655012 Eh     -4.11 kcal/mol|
|  sn= 3 | S(rot)=      -0.00693295 Eh     -4.35 kcal/mol|
|  sn= 4 | S(rot)=      -0.00720457 Eh     -4.52 kcal/mol|
|  sn= 5 | S(rot)=      -0.00741526 Eh     -4.65 kcal/mol|
|  sn= 6 | S(rot)=      -0.00758741 Eh     -4.76 kcal/mol|
|  sn= 7 | S(rot)=      -0.00773295 Eh     -4.85 kcal/mol|
|  sn= 8 | S(rot)=      -0.00785903 Eh     -4.93 kcal/mol|
|  sn= 9 | S(rot)=      -0.00797024 Eh     -5.00 kcal/mol|
|  sn=10 | S(rot)=      -0.00806972 Eh     -5.06 kcal/mol|
|  sn=11 | S(rot)=      -0.00815971 Eh     -5.12 kcal/mol|
|  sn=12 | S(rot)=      -0.00824186 Eh     -5.17 kcal/mol|
 --------------------------------------------------------

-------------------
GIBBS FREE ENERGY
-------------------

The Gibbs free energy is G = H - T*S

Total enthalpy                    ...   -553.01350629 Eh
Total entropy correction          ...     -0.02660667 Eh    -16.70 kcal/mol
-----------------------------------------------------------------------
Final Gibbs free energy         ...   -553.04011296 Eh

For completeness - the Gibbs free energy minus the electronic energy
G-E(el)                           ...     -0.01375183 Eh     -8.63 kcal/mol

                             ****ORCA TERMINATED NORMALLY****
TOTAL RUN TIME: 0 days 0 hours 0 minutes 37 seconds 861 msec
