                         Program Version 4.2.0 -  RELEASE  -
|  1> #
|  2> # 09_ClF scanfunc/aug-cc-pvt(+d)z
|  3> #
|  4> ! scanfunc d3bj aug-cc-pvt(+d)z def2/j opt xyzfile numfreq
|  5>
|  6> *xyz 0 1
|  7> Cl           0.814871513         -0.000000011          0.000000056
|  8> F           -0.814871513          0.000000011         -0.000000056
|  9> *
| 10>
| 11> %pal
| 12> nprocs 24
| 13> end
| 14>
| 15>
| 16>                          ****END OF INPUT****
 Total Charge           Charge          ....    0
 Multiplicity           Mult            ....    1
 Number of Electrons    NEL             ....   26
Dispersion correction           -0.000078016
FINAL SINGLE POINT ENERGY      -559.995803351909
Dispersion correction            ... done
Dispersion correction           -0.000078068
FINAL SINGLE POINT ENERGY      -559.990594494187
Dispersion correction            ... done
Dispersion correction           -0.000078092
FINAL SINGLE POINT ENERGY      -559.983492250035
Dispersion correction            ... done
FINAL SINGLE POINT ENERGY      -559.985870417413
Dispersion correction            ... done
Dispersion correction           -0.000078086
FINAL SINGLE POINT ENERGY      -559.985686145429
Dispersion correction            ... done
Dispersion correction           -0.000078086
FINAL SINGLE POINT ENERGY      -559.985679671678
Dispersion correction            ... done
                    ***********************HURRAY********************

CARTESIAN COORDINATES (ANGSTROEM)
---------------------------------
  Cl     0.755496   -0.000000    0.000000
  F     -0.755496    0.000000   -0.000000

 Multiplicity           Mult            ....    1
 Number of Electrons    NEL             ....   26
 Basis Dimension        Dim             ....  101

ORBITAL ENERGIES
----------------

  NO   OCC          E(Eh)            E(eV)
   0   2.0000    -101.177042     -2753.1673
   1   2.0000     -24.516860      -667.1377
   2   2.0000      -9.421789      -256.3799
   3   2.0000      -7.166896      -195.0211
   4   2.0000      -7.145949      -194.4512
   5   2.0000      -7.145949      -194.4512
   6   2.0000      -1.264965       -34.4214
   7   2.0000      -0.791538       -21.5388
   8   2.0000      -0.529836       -14.4176
   9   2.0000      -0.484900       -13.1948
  10   2.0000      -0.484900       -13.1948
  11   2.0000      -0.288553        -7.8519
  12   2.0000      -0.288553        -7.8519
  13   0.0000      -0.107233        -2.9180
  14   0.0000       0.050583         1.3764
  15   0.0000       0.081230         2.2104
  16   0.0000       0.082167         2.2359
  17   0.0000       0.082167         2.2359

MULLIKEN ATOMIC CHARGES
-----------------------
   0 Cl:    0.306769
   1 F :   -0.306769
Sum of atomic charges:    0.0000000

LOEWDIN ATOMIC CHARGES
----------------------
   0 Cl:    0.275340
   1 F :   -0.275340

  Mayer bond orders larger than 0.100000
B(  0-Cl,  1-F ) :   0.7445

Dispersion correction           -0.000078086
FINAL SINGLE POINT ENERGY      -559.985679376549

DIPOLE MOMENT
-------------
                                X             Y             Z
Electronic contribution:     -0.06607       0.00000       0.00000
Nuclear contribution   :      0.20394      -0.00000       0.00000
                        -----------------------------------------
Total Dipole Moment    :      0.13787       0.00000       0.00000
                        -----------------------------------------
Magnitude (a.u.)       :      0.13787
Magnitude (Debye)      :      0.35043

VIBRATIONAL FREQUENCIES
-----------------------

Scaling factor for frequencies =  1.000000000 (already applied!)

   0:         0.00 cm**-1
   1:         0.00 cm**-1
   2:         0.00 cm**-1
   3:         0.00 cm**-1
   4:         0.00 cm**-1
   5:      1030.31 cm**-1

IR SPECTRUM
-----------

 Mode    freq (cm**-1)   T**2         TX         TY         TZ
-------------------------------------------------------------------
   5:      1030.31   48.301269  (  6.949911   0.000003  -0.000005)

--------------------------
THERMOCHEMISTRY AT 298.15K
--------------------------

Temperature         ... 298.15 K
Pressure            ... 1.00 atm
Total Mass          ... 54.45 AMU
The molecule is recognized as being linear

Throughout the following assumptions are being made:
  (1) The electronic state is orbitally nondegenerate
  (2) There are no thermally accessible electronically excited states
  (3) Hindered rotations indicated by low frequency modes are not
      treated as such but are treated as vibrations and this may
      cause some error
  (4) All equations used are the standard statistical mechanics
      equations for an ideal gas
  (5) All vibrations are strictly harmonic

freq.    1030.31  E(vib)   ...       0.02

------------
INNER ENERGY
------------

The inner energy is: U= E(el) + E(ZPE) + E(vib) + E(rot) + E(trans)
    E(el)   - is the total energy from the electronic structure calculation
              = E(kin-el) + E(nuc-el) + E(el-el) + E(nuc-nuc)
    E(ZPE)  - the the zero temperature vibrational energy from the frequency calculation
    E(vib)  - the the finite temperature correction to E(ZPE) due to population
              of excited vibrational states
    E(rot)  - is the rotational thermal energy
    E(trans)- is the translational thermal energy

Summary of contributions to the inner energy U:
Electronic energy                ...   -559.98567936 Eh
Zero point energy                ...      0.00234722 Eh       1.47 kcal/mol
Thermal vibrational correction   ...      0.00003276 Eh       0.02 kcal/mol
Thermal rotational correction    ...      0.00094418 Eh       0.59 kcal/mol
Thermal translational correction ...      0.00141627 Eh       0.89 kcal/mol
-----------------------------------------------------------------------
Total thermal energy                   -559.98093892 Eh

Summary of corrections to the electronic energy:
(perhaps to be used in another calculation)
Total thermal correction                  0.00239321 Eh       1.50 kcal/mol
Non-thermal (ZPE) correction              0.00234722 Eh       1.47 kcal/mol
-----------------------------------------------------------------------
Total correction                          0.00474043 Eh       2.97 kcal/mol

--------
ENTHALPY
--------

The enthalpy is H = U + kB*T
                kB is Boltzmann's constant
Total free energy                 ...   -559.98093892 Eh
Thermal Enthalpy correction       ...      0.00094421 Eh       0.59 kcal/mol
-----------------------------------------------------------------------
Total Enthalpy                    ...   -559.97999472 Eh

Note: Rotational entropy computed according to Herzberg
Infrared and Raman Spectra, Chapter V,1, Van Nostrand Reinhold, 1945
Point Group:  Cinfv, Symmetry Number:   1
Rotational constants in cm-1:     0.000000     0.596923     0.596923

Vibrational entropy computed according to the QRRHO of S. Grimme
Chem.Eur.J. 2012 18 9955

-------
ENTROPY
-------

The entropy contributions are T*S = T*(S(el)+S(vib)+S(rot)+S(trans))
     S(el)   - electronic entropy
     S(vib)  - vibrational entropy
     S(rot)  - rotational entropy
     S(trans)- translational entropy
The entropies will be listed as mutliplied by the temperature to get
units of energy

Electronic entropy                ...      0.00000000 Eh      0.00 kcal/mol
Vibrational entropy               ...      0.00003935 Eh      0.02 kcal/mol
Rotational entropy                ...      0.00646743 Eh      4.06 kcal/mol
Translational entropy             ...      0.01801033 Eh     11.30 kcal/mol
-----------------------------------------------------------------------
Final entropy term                ...      0.02451711 Eh     15.38 kcal/mol

In case the symmetry of your molecule has not been determined correctly
or in case you have a reason to use a different symmetry number we print
out the resulting rotational entropy values for sn=1,12 :
 --------------------------------------------------------
|  sn= 1 | S(rot)=             -nan Eh      -nan kcal/mol|
|  sn= 2 | S(rot)=             -nan Eh      -nan kcal/mol|
|  sn= 3 | S(rot)=             -nan Eh      -nan kcal/mol|
|  sn= 4 | S(rot)=             -nan Eh      -nan kcal/mol|
|  sn= 5 | S(rot)=             -nan Eh      -nan kcal/mol|
|  sn= 6 | S(rot)=             -nan Eh      -nan kcal/mol|
|  sn= 7 | S(rot)=             -nan Eh      -nan kcal/mol|
|  sn= 8 | S(rot)=             -nan Eh      -nan kcal/mol|
|  sn= 9 | S(rot)=             -nan Eh      -nan kcal/mol|
|  sn=10 | S(rot)=             -nan Eh      -nan kcal/mol|
|  sn=11 | S(rot)=             -nan Eh      -nan kcal/mol|
|  sn=12 | S(rot)=             -nan Eh      -nan kcal/mol|
 --------------------------------------------------------

-------------------
GIBBS FREE ENERGY
-------------------

The Gibbs free energy is G = H - T*S

Total enthalpy                    ...   -559.97999472 Eh
Total entropy correction          ...     -0.02451711 Eh    -15.38 kcal/mol
-----------------------------------------------------------------------
Final Gibbs free energy         ...   -560.00451183 Eh

For completeness - the Gibbs free energy minus the electronic energy
G-E(el)                           ...     -0.01883247 Eh    -11.82 kcal/mol

                             ****ORCA TERMINATED NORMALLY****
TOTAL RUN TIME: 0 days 0 hours 0 minutes 29 seconds 708 msec
