                         Program Version 4.2.0 -  RELEASE  -
|  1> #
|  2> # 10_CO2 scanfunc/aug-cc-pvt(+d)z
|  3> #
|  4> ! scanfunc d3bj aug-cc-pvt(+d)z def2/j opt xyzfile numfreq
|  5>
|  6> *xyz 0 1
|  7> O           -1.161057866         -0.000000006         -0.000000007
|  8> O            1.161057864          0.000000007          0.000000007
|  9> C            0.000000003         -0.000000000         -0.000000000
| 10> *
| 11>
| 12> %pal
| 13> nprocs 24
| 14> end
| 15>
| 16>
| 17>                          ****END OF INPUT****
 Total Charge           Charge          ....    0
 Multiplicity           Mult            ....    1
 Number of Electrons    NEL             ....   22
Dispersion correction           -0.000191187
FINAL SINGLE POINT ENERGY      -188.588145720672
Dispersion correction            ... done
Dispersion correction           -0.000191460
FINAL SINGLE POINT ENERGY      -188.580518188606
Dispersion correction            ... done
Dispersion correction           -0.000191430
FINAL SINGLE POINT ENERGY      -188.582297868912
Dispersion correction            ... done
Dispersion correction           -0.000191434
FINAL SINGLE POINT ENERGY      -188.582121343909
Dispersion correction            ... done
Dispersion correction           -0.000191434
FINAL SINGLE POINT ENERGY      -188.582118614438
Dispersion correction            ... done
                    ***********************HURRAY********************

CARTESIAN COORDINATES (ANGSTROEM)
---------------------------------
  O     -1.124858   -0.000000   -0.000000
  O      1.124858    0.000000    0.000000
  C      0.000000   -0.000000   -0.000000

 Multiplicity           Mult            ....    1
 Number of Electrons    NEL             ....   22
 Basis Dimension        Dim             ....  138

ORBITAL ENERGIES
----------------

  NO   OCC          E(Eh)            E(eV)
   0   2.0000     -19.052907      -518.4560
   1   2.0000     -19.052882      -518.4553
   2   2.0000     -10.204616      -277.6817
   3   2.0000      -1.152930       -31.3728
   4   2.0000      -1.117397       -30.4059
   5   2.0000      -0.520488       -14.1632
   6   2.0000      -0.498455       -13.5637
   7   2.0000      -0.498455       -13.5637
   8   2.0000      -0.485151       -13.2016
   9   2.0000      -0.349446        -9.5089
  10   2.0000      -0.349446        -9.5089
  11   0.0000      -0.005010        -0.1363
  12   0.0000       0.029194         0.7944
  13   0.0000       0.029194         0.7944
  14   0.0000       0.054689         1.4882
  15   0.0000       0.054689         1.4882

MULLIKEN ATOMIC CHARGES
-----------------------
   0 O :   -0.179631
   1 O :   -0.179631
   2 C :    0.359261
Sum of atomic charges:   -0.0000000

LOEWDIN ATOMIC CHARGES
----------------------
   0 O :    0.395600
   1 O :    0.395600
   2 C :   -0.791199

  Mayer bond orders larger than 0.100000
B(  0-O ,  2-C ) :   2.0069 B(  1-O ,  2-C ) :   2.0069

Dispersion correction           -0.000191434
FINAL SINGLE POINT ENERGY      -188.582118798614

DIPOLE MOMENT
-------------
                                X             Y             Z
Electronic contribution:      0.00000      -0.00000      -0.00000
Nuclear contribution   :     -0.00000       0.00000       0.00000
                        -----------------------------------------
Total Dipole Moment    :      0.00000      -0.00000      -0.00000
                        -----------------------------------------
Magnitude (a.u.)       :      0.00000
Magnitude (Debye)      :      0.00000

VIBRATIONAL FREQUENCIES
-----------------------

Scaling factor for frequencies =  1.000000000 (already applied!)

   0:         0.00 cm**-1
   1:         0.00 cm**-1
   2:         0.00 cm**-1
   3:         0.00 cm**-1
   4:         0.00 cm**-1
   5:       800.41 cm**-1
   6:       800.41 cm**-1
   7:      1653.15 cm**-1
   8:      2805.48 cm**-1

IR SPECTRUM
-----------

 Mode    freq (cm**-1)   T**2         TX         TY         TZ
-------------------------------------------------------------------
   5:       800.41   31.403729  (  0.000004  -0.133634   5.602309)
   6:       800.41   31.403733  ( -0.000003   5.602310   0.133635)
   7:      1653.15    0.000000  ( -0.000000   0.000001  -0.000003)
   8:      2805.48  648.340857  (-25.462538  -0.000001   0.000005)

--------------------------
THERMOCHEMISTRY AT 298.15K
--------------------------

Temperature         ... 298.15 K
Pressure            ... 1.00 atm
Total Mass          ... 44.01 AMU
The molecule is recognized as being linear

Throughout the following assumptions are being made:
  (1) The electronic state is orbitally nondegenerate
  (2) There are no thermally accessible electronically excited states
  (3) Hindered rotations indicated by low frequency modes are not
      treated as such but are treated as vibrations and this may
      cause some error
  (4) All equations used are the standard statistical mechanics
      equations for an ideal gas
  (5) All vibrations are strictly harmonic

freq.     800.41  E(vib)   ...       0.05
freq.     800.41  E(vib)   ...       0.05
freq.    1653.15  E(vib)   ...       0.00
freq.    2805.48  E(vib)   ...       0.00

------------
INNER ENERGY
------------

The inner energy is: U= E(el) + E(ZPE) + E(vib) + E(rot) + E(trans)
    E(el)   - is the total energy from the electronic structure calculation
              = E(kin-el) + E(nuc-el) + E(el-el) + E(nuc-nuc)
    E(ZPE)  - the the zero temperature vibrational energy from the frequency calculation
    E(vib)  - the the finite temperature correction to E(ZPE) due to population
              of excited vibrational states
    E(rot)  - is the rotational thermal energy
    E(trans)- is the translational thermal energy

Summary of contributions to the inner energy U:
Electronic energy                ...   -188.58211873 Eh
Zero point energy                ...      0.01380444 Eh       8.66 kcal/mol
Thermal vibrational correction   ...      0.00015919 Eh       0.10 kcal/mol
Thermal rotational correction    ...      0.00094418 Eh       0.59 kcal/mol
Thermal translational correction ...      0.00141627 Eh       0.89 kcal/mol
-----------------------------------------------------------------------
Total thermal energy                   -188.56579464 Eh

Summary of corrections to the electronic energy:
(perhaps to be used in another calculation)
Total thermal correction                  0.00251964 Eh       1.58 kcal/mol
Non-thermal (ZPE) correction              0.01380444 Eh       8.66 kcal/mol
-----------------------------------------------------------------------
Total correction                          0.01632408 Eh      10.24 kcal/mol

--------
ENTHALPY
--------

The enthalpy is H = U + kB*T
                kB is Boltzmann's constant
Total free energy                 ...   -188.56579464 Eh
Thermal Enthalpy correction       ...      0.00094421 Eh       0.59 kcal/mol
-----------------------------------------------------------------------
Total Enthalpy                    ...   -188.56485043 Eh

Note: Rotational entropy computed according to Herzberg
Infrared and Raman Spectra, Chapter V,1, Van Nostrand Reinhold, 1945
Point Group:  Dinfh, Symmetry Number:   2
Rotational constants in cm-1:     0.000000     0.416369     0.416369

Vibrational entropy computed according to the QRRHO of S. Grimme
Chem.Eur.J. 2012 18 9955

-------
ENTROPY
-------

The entropy contributions are T*S = T*(S(el)+S(vib)+S(rot)+S(trans))
     S(el)   - electronic entropy
     S(vib)  - vibrational entropy
     S(rot)  - rotational entropy
     S(trans)- translational entropy
The entropies will be listed as mutliplied by the temperature to get
units of energy

Electronic entropy                ...      0.00000000 Eh      0.00 kcal/mol
Vibrational entropy               ...      0.00019976 Eh      0.13 kcal/mol
Rotational entropy                ...      0.00615308 Eh      3.86 kcal/mol
Translational entropy             ...      0.01770880 Eh     11.11 kcal/mol
-----------------------------------------------------------------------
Final entropy term                ...      0.02406164 Eh     15.10 kcal/mol

In case the symmetry of your molecule has not been determined correctly
or in case you have a reason to use a different symmetry number we print
out the resulting rotational entropy values for sn=1,12 :
 --------------------------------------------------------
|  sn= 1 | S(rot)=      -0.00622054 Eh     -3.90 kcal/mol|
|  sn= 2 | S(rot)=      -0.00687499 Eh     -4.31 kcal/mol|
|  sn= 3 | S(rot)=      -0.00725783 Eh     -4.55 kcal/mol|
|  sn= 4 | S(rot)=      -0.00752945 Eh     -4.72 kcal/mol|
|  sn= 5 | S(rot)=      -0.00774014 Eh     -4.86 kcal/mol|
|  sn= 6 | S(rot)=      -0.00791228 Eh     -4.97 kcal/mol|
|  sn= 7 | S(rot)=      -0.00805783 Eh     -5.06 kcal/mol|
|  sn= 8 | S(rot)=      -0.00818391 Eh     -5.14 kcal/mol|
|  sn= 9 | S(rot)=      -0.00829512 Eh     -5.21 kcal/mol|
|  sn=10 | S(rot)=      -0.00839459 Eh     -5.27 kcal/mol|
|  sn=11 | S(rot)=      -0.00848458 Eh     -5.32 kcal/mol|
|  sn=12 | S(rot)=      -0.00856674 Eh     -5.38 kcal/mol|
 --------------------------------------------------------

-------------------
GIBBS FREE ENERGY
-------------------

The Gibbs free energy is G = H - T*S

Total enthalpy                    ...   -188.56485043 Eh
Total entropy correction          ...     -0.02406164 Eh    -15.10 kcal/mol
-----------------------------------------------------------------------
Final Gibbs free energy         ...   -188.58891207 Eh

For completeness - the Gibbs free energy minus the electronic energy
G-E(el)                           ...     -0.00679334 Eh     -4.26 kcal/mol

                             ****ORCA TERMINATED NORMALLY****
TOTAL RUN TIME: 0 days 0 hours 0 minutes 29 seconds 671 msec
