                         Program Version 4.2.0 -  RELEASE  -
|  1> #
|  2> # 12_CS2 scanfunc/aug-cc-pvt(+d)z
|  3> #
|  4> ! scanfunc d3bj aug-cc-pvt(+d)z def2/j opt xyzfile numfreq
|  5>
|  6> *xyz 0 1
|  7> S           0.000000000         0.000000000          1.550022582
|  8> C           0.000000000         0.000000000          0.000000099
|  9> S           0.000000000         0.000000000         -1.550022427
| 10> *
| 11>
| 12> %pal
| 13> nprocs 24
| 14> end
| 15>
| 16>
| 17>                          ****END OF INPUT****
 Total Charge           Charge          ....    0
 Multiplicity           Mult            ....    1
 Number of Electrons    NEL             ....   38
Dispersion correction           -0.000485332
FINAL SINGLE POINT ENERGY      -834.657576984239
Dispersion correction            ... done
Dispersion correction           -0.000483311
FINAL SINGLE POINT ENERGY      -834.654447798831
Dispersion correction            ... done
Dispersion correction           -0.000480405
FINAL SINGLE POINT ENERGY      -834.643458214163
Dispersion correction            ... done
FINAL SINGLE POINT ENERGY      -834.639168830213
Dispersion correction            ... done
Dispersion correction           -0.000479288
FINAL SINGLE POINT ENERGY      -834.638165516526
Dispersion correction            ... done
Dispersion correction           -0.000479279
FINAL SINGLE POINT ENERGY      -834.638121229017
Dispersion correction            ... done
                    ***********************HURRAY********************

CARTESIAN COORDINATES (ANGSTROEM)
---------------------------------
  S      0.000000    0.000000    1.657806
  C     -0.000000   -0.000000    0.000000
  S      0.000000    0.000000   -1.657806

 Multiplicity           Mult            ....    1
 Number of Electrons    NEL             ....   38
 Basis Dimension        Dim             ....  156

ORBITAL ENERGIES
----------------

  NO   OCC          E(Eh)            E(eV)
   0   2.0000     -88.583800     -2410.4878
   1   2.0000     -88.583794     -2410.4876
   2   2.0000     -10.162677      -276.5405
   3   2.0000      -7.932004      -215.8408
   4   2.0000      -7.932001      -215.8407
   5   2.0000      -5.874454      -159.8520
   6   2.0000      -5.874450      -159.8519
   7   2.0000      -5.866444      -159.6341
   8   2.0000      -5.866444      -159.6341
   9   2.0000      -5.866440      -159.6339
  10   2.0000      -5.866440      -159.6339
  11   2.0000      -0.797918       -21.7125
  12   2.0000      -0.717884       -19.5346
  13   2.0000      -0.500285       -13.6134
  14   2.0000      -0.404618       -11.0102
  15   2.0000      -0.349696        -9.5157
  16   2.0000      -0.349696        -9.5157
  17   2.0000      -0.262044        -7.1306
  18   2.0000      -0.262044        -7.1306
  19   0.0000      -0.120604        -3.2818
  20   0.0000      -0.120604        -3.2818
  21   0.0000      -0.029235        -0.7955
  22   0.0000       0.018731         0.5097
  23   0.0000       0.035454         0.9647

MULLIKEN ATOMIC CHARGES
-----------------------
   0 S :   -0.044138
   1 C :    0.088272
   2 S :   -0.044133
Sum of atomic charges:   -0.0000000

LOEWDIN ATOMIC CHARGES
----------------------
   0 S :    0.704738
   1 C :   -1.409481
   2 S :    0.704743

  Mayer bond orders larger than 0.100000
B(  0-S ,  1-C ) :   1.7051 B(  0-S ,  2-S ) :   0.4118 B(  1-C ,  2-S ) :   1.7051

Dispersion correction           -0.000479279
FINAL SINGLE POINT ENERGY      -834.638120681449

DIPOLE MOMENT
-------------
                                X             Y             Z
Electronic contribution:      0.00000      -0.00000      -0.00002
Nuclear contribution   :     -0.00000      -0.00000      -0.00000
                        -----------------------------------------
Total Dipole Moment    :      0.00000      -0.00000      -0.00002
                        -----------------------------------------
Magnitude (a.u.)       :      0.00002
Magnitude (Debye)      :      0.00004

VIBRATIONAL FREQUENCIES
-----------------------

Scaling factor for frequencies =  1.000000000 (already applied!)

   0:         0.00 cm**-1
   1:         0.00 cm**-1
   2:         0.00 cm**-1
   3:         0.00 cm**-1
   4:         0.00 cm**-1
   5:       462.85 cm**-1
   6:       523.39 cm**-1
   7:       523.40 cm**-1
   8:       926.38 cm**-1

IR SPECTRUM
-----------

 Mode    freq (cm**-1)   T**2         TX         TY         TZ
-------------------------------------------------------------------
   5:       462.85    0.000000  ( -0.000021   0.000003  -0.000001)
   6:       523.39    3.368269  (  1.276487  -1.318655  -0.000116)
   7:       523.40    3.368203  ( -1.318644  -1.276471   0.000003)
   8:       926.38  531.817746  (  0.000007  -0.000002  23.061174)

--------------------------
THERMOCHEMISTRY AT 298.15K
--------------------------

Temperature         ... 298.15 K
Pressure            ... 1.00 atm
Total Mass          ... 76.13 AMU
The molecule is recognized as being linear

Throughout the following assumptions are being made:
  (1) The electronic state is orbitally nondegenerate
  (2) There are no thermally accessible electronically excited states
  (3) Hindered rotations indicated by low frequency modes are not
      treated as such but are treated as vibrations and this may
      cause some error
  (4) All equations used are the standard statistical mechanics
      equations for an ideal gas
  (5) All vibrations are strictly harmonic

freq.     462.85  E(vib)   ...       0.16
freq.     523.39  E(vib)   ...       0.13
freq.     523.40  E(vib)   ...       0.13
freq.     926.38  E(vib)   ...       0.03

------------
INNER ENERGY
------------

The inner energy is: U= E(el) + E(ZPE) + E(vib) + E(rot) + E(trans)
    E(el)   - is the total energy from the electronic structure calculation
              = E(kin-el) + E(nuc-el) + E(el-el) + E(nuc-nuc)
    E(ZPE)  - the the zero temperature vibrational energy from the frequency calculation
    E(vib)  - the the finite temperature correction to E(ZPE) due to population
              of excited vibrational states
    E(rot)  - is the rotational thermal energy
    E(trans)- is the translational thermal energy

Summary of contributions to the inner energy U:
Electronic energy                ...   -834.63812065 Eh
Zero point energy                ...      0.00554967 Eh       3.48 kcal/mol
Thermal vibrational correction   ...      0.00071672 Eh       0.45 kcal/mol
Thermal rotational correction    ...      0.00094418 Eh       0.59 kcal/mol
Thermal translational correction ...      0.00141627 Eh       0.89 kcal/mol
-----------------------------------------------------------------------
Total thermal energy                   -834.62949381 Eh

Summary of corrections to the electronic energy:
(perhaps to be used in another calculation)
Total thermal correction                  0.00307717 Eh       1.93 kcal/mol
Non-thermal (ZPE) correction              0.00554967 Eh       3.48 kcal/mol
-----------------------------------------------------------------------
Total correction                          0.00862684 Eh       5.41 kcal/mol

--------
ENTHALPY
--------

The enthalpy is H = U + kB*T
                kB is Boltzmann's constant
Total free energy                 ...   -834.62949381 Eh
Thermal Enthalpy correction       ...      0.00094421 Eh       0.59 kcal/mol
-----------------------------------------------------------------------
Total Enthalpy                    ...   -834.62854960 Eh

Note: Rotational entropy computed according to Herzberg
Infrared and Raman Spectra, Chapter V,1, Van Nostrand Reinhold, 1945
Point Group:  Dinfh, Symmetry Number:   2
Rotational constants in cm-1:     0.000000     0.095661     0.095661

Vibrational entropy computed according to the QRRHO of S. Grimme
Chem.Eur.J. 2012 18 9955

-------
ENTROPY
-------

The entropy contributions are T*S = T*(S(el)+S(vib)+S(rot)+S(trans))
     S(el)   - electronic entropy
     S(vib)  - vibrational entropy
     S(rot)  - rotational entropy
     S(trans)- translational entropy
The entropies will be listed as mutliplied by the temperature to get
units of energy

Electronic entropy                ...      0.00000000 Eh      0.00 kcal/mol
Vibrational entropy               ...      0.00099343 Eh      0.62 kcal/mol
Rotational entropy                ...      0.00754174 Eh      4.73 kcal/mol
Translational entropy             ...      0.01848500 Eh     11.60 kcal/mol
-----------------------------------------------------------------------
Final entropy term                ...      0.02702018 Eh     16.96 kcal/mol

In case the symmetry of your molecule has not been determined correctly
or in case you have a reason to use a different symmetry number we print
out the resulting rotational entropy values for sn=1,12 :
 --------------------------------------------------------
|  sn= 1 | S(rot)=      -0.00706260 Eh     -4.43 kcal/mol|
|  sn= 2 | S(rot)=      -0.00771706 Eh     -4.84 kcal/mol|
|  sn= 3 | S(rot)=      -0.00809989 Eh     -5.08 kcal/mol|
|  sn= 4 | S(rot)=      -0.00837152 Eh     -5.25 kcal/mol|
|  sn= 5 | S(rot)=      -0.00858220 Eh     -5.39 kcal/mol|
|  sn= 6 | S(rot)=      -0.00875435 Eh     -5.49 kcal/mol|
|  sn= 7 | S(rot)=      -0.00889989 Eh     -5.58 kcal/mol|
|  sn= 8 | S(rot)=      -0.00902597 Eh     -5.66 kcal/mol|
|  sn= 9 | S(rot)=      -0.00913718 Eh     -5.73 kcal/mol|
|  sn=10 | S(rot)=      -0.00923666 Eh     -5.80 kcal/mol|
|  sn=11 | S(rot)=      -0.00932665 Eh     -5.85 kcal/mol|
|  sn=12 | S(rot)=      -0.00940880 Eh     -5.90 kcal/mol|
 --------------------------------------------------------

-------------------
GIBBS FREE ENERGY
-------------------

The Gibbs free energy is G = H - T*S

Total enthalpy                    ...   -834.62854960 Eh
Total entropy correction          ...     -0.02702018 Eh    -16.96 kcal/mol
-----------------------------------------------------------------------
Final Gibbs free energy         ...   -834.65556978 Eh

For completeness - the Gibbs free energy minus the electronic energy
G-E(el)                           ...     -0.01744913 Eh    -10.95 kcal/mol

                             ****ORCA TERMINATED NORMALLY****
TOTAL RUN TIME: 0 days 0 hours 0 minutes 40 seconds 832 msec
