                         Program Version 4.2.0 -  RELEASE  -
|  1> #
|  2> # 13_CS scanfunc/aug-cc-pvt(+d)z
|  3> #
|  4> ! scanfunc d3bj aug-cc-pvt(+d)z def2/j opt xyzfile numfreq
|  5>
|  6> *xyz 0 1
|  7> C           -0.000000200         -0.000000107          0.006732513
|  8> S            0.000000200          0.000000107          1.532967485
|  9> *
| 10>
| 11> %pal
| 12> nprocs 24
| 13> end
| 14>
| 15>
| 16>                          ****END OF INPUT****
 Total Charge           Charge          ....    0
 Multiplicity           Mult            ....    1
 Number of Electrons    NEL             ....   22
Dispersion correction           -0.000170370
FINAL SINGLE POINT ENERGY      -436.287710594669
Dispersion correction            ... done
Dispersion correction           -0.000170351
FINAL SINGLE POINT ENERGY      -436.287658157751
Dispersion correction            ... done
Dispersion correction           -0.000170326
FINAL SINGLE POINT ENERGY      -436.286389617656
Dispersion correction            ... done
Dispersion correction           -0.000170321
FINAL SINGLE POINT ENERGY      -436.285960015457
Dispersion correction            ... done
Dispersion correction           -0.000170320
FINAL SINGLE POINT ENERGY      -436.285900379735
Dispersion correction            ... done
                    ***********************HURRAY********************

CARTESIAN COORDINATES (ANGSTROEM)
---------------------------------
  C     -0.000000   -0.000000   -0.020231
  S      0.000000    0.000000    1.559931

 Multiplicity           Mult            ....    1
 Number of Electrons    NEL             ....   22
 Basis Dimension        Dim             ....  101

ORBITAL ENERGIES
----------------

  NO   OCC          E(Eh)            E(eV)
   0   2.0000     -88.587687     -2410.5935
   1   2.0000     -10.126502      -275.5561
   2   2.0000      -7.941595      -216.1018
   3   2.0000      -5.879515      -159.9897
   4   2.0000      -5.879515      -159.9897
   5   2.0000      -5.875949      -159.8927
   6   2.0000      -0.792694       -21.5703
   7   2.0000      -0.502672       -13.6784
   8   2.0000      -0.331386        -9.0175
   9   2.0000      -0.331386        -9.0175
  10   2.0000      -0.291488        -7.9318
  11   0.0000      -0.125568        -3.4169
  12   0.0000      -0.125568        -3.4169
  13   0.0000       0.026332         0.7165
  14   0.0000       0.033462         0.9105
  15   0.0000       0.065451         1.7810

MULLIKEN ATOMIC CHARGES
-----------------------
   0 C :   -0.344468
   1 S :    0.344468
Sum of atomic charges:   -0.0000000

LOEWDIN ATOMIC CHARGES
----------------------
   0 C :   -0.634459
   1 S :    0.634459

  Mayer bond orders larger than 0.100000
B(  0-C ,  1-S ) :   2.3382

Dispersion correction           -0.000170320
FINAL SINGLE POINT ENERGY      -436.285899191865

DIPOLE MOMENT
-------------
                                X             Y             Z
Electronic contribution:      0.00000       0.00000       0.71498
Nuclear contribution   :     -0.00000      -0.00000      -0.01247
                        -----------------------------------------
Total Dipole Moment    :      0.00000       0.00000       0.70251
                        -----------------------------------------
Magnitude (a.u.)       :      0.70251
Magnitude (Debye)      :      1.78565

VIBRATIONAL FREQUENCIES
-----------------------

Scaling factor for frequencies =  1.000000000 (already applied!)

   0:         0.00 cm**-1
   1:         0.00 cm**-1
   2:         0.00 cm**-1
   3:         0.00 cm**-1
   4:         0.00 cm**-1
   5:       979.80 cm**-1

IR SPECTRUM
-----------

 Mode    freq (cm**-1)   T**2         TX         TY         TZ
-------------------------------------------------------------------
   5:       979.80   79.165565  (  0.000002   0.000001   8.897503)

--------------------------
THERMOCHEMISTRY AT 298.15K
--------------------------

Temperature         ... 298.15 K
Pressure            ... 1.00 atm
Total Mass          ... 44.07 AMU
The molecule is recognized as being linear

Throughout the following assumptions are being made:
  (1) The electronic state is orbitally nondegenerate
  (2) There are no thermally accessible electronically excited states
  (3) Hindered rotations indicated by low frequency modes are not
      treated as such but are treated as vibrations and this may
      cause some error
  (4) All equations used are the standard statistical mechanics
      equations for an ideal gas
  (5) All vibrations are strictly harmonic

freq.     979.80  E(vib)   ...       0.02

------------
INNER ENERGY
------------

The inner energy is: U= E(el) + E(ZPE) + E(vib) + E(rot) + E(trans)
    E(el)   - is the total energy from the electronic structure calculation
              = E(kin-el) + E(nuc-el) + E(el-el) + E(nuc-nuc)
    E(ZPE)  - the the zero temperature vibrational energy from the frequency calculation
    E(vib)  - the the finite temperature correction to E(ZPE) due to population
              of excited vibrational states
    E(rot)  - is the rotational thermal energy
    E(trans)- is the translational thermal energy

Summary of contributions to the inner energy U:
Electronic energy                ...   -436.28589914 Eh
Zero point energy                ...      0.00223215 Eh       1.40 kcal/mol
Thermal vibrational correction   ...      0.00003983 Eh       0.02 kcal/mol
Thermal rotational correction    ...      0.00094418 Eh       0.59 kcal/mol
Thermal translational correction ...      0.00141627 Eh       0.89 kcal/mol
-----------------------------------------------------------------------
Total thermal energy                   -436.28126670 Eh

Summary of corrections to the electronic energy:
(perhaps to be used in another calculation)
Total thermal correction                  0.00240028 Eh       1.51 kcal/mol
Non-thermal (ZPE) correction              0.00223215 Eh       1.40 kcal/mol
-----------------------------------------------------------------------
Total correction                          0.00463243 Eh       2.91 kcal/mol

--------
ENTHALPY
--------

The enthalpy is H = U + kB*T
                kB is Boltzmann's constant
Total free energy                 ...   -436.28126670 Eh
Thermal Enthalpy correction       ...      0.00094421 Eh       0.59 kcal/mol
-----------------------------------------------------------------------
Total Enthalpy                    ...   -436.28032249 Eh

Note: Rotational entropy computed according to Herzberg
Infrared and Raman Spectra, Chapter V,1, Van Nostrand Reinhold, 1945
Point Group:  Cinfv, Symmetry Number:   1
Rotational constants in cm-1:     0.000000     0.772688     0.772688

Vibrational entropy computed according to the QRRHO of S. Grimme
Chem.Eur.J. 2012 18 9955

-------
ENTROPY
-------

The entropy contributions are T*S = T*(S(el)+S(vib)+S(rot)+S(trans))
     S(el)   - electronic entropy
     S(vib)  - vibrational entropy
     S(rot)  - rotational entropy
     S(trans)- translational entropy
The entropies will be listed as mutliplied by the temperature to get
units of energy

Electronic entropy                ...      0.00000000 Eh      0.00 kcal/mol
Vibrational entropy               ...      0.00004824 Eh      0.03 kcal/mol
Rotational entropy                ...      0.00622375 Eh      3.91 kcal/mol
Translational entropy             ...      0.01771079 Eh     11.11 kcal/mol
-----------------------------------------------------------------------
Final entropy term                ...      0.02398279 Eh     15.05 kcal/mol

In case the symmetry of your molecule has not been determined correctly
or in case you have a reason to use a different symmetry number we print
out the resulting rotational entropy values for sn=1,12 :
 --------------------------------------------------------
|  sn= 1 | S(rot)=      -0.02130348 Eh    -13.37 kcal/mol|
|  sn= 2 | S(rot)=      -0.02195794 Eh    -13.78 kcal/mol|
|  sn= 3 | S(rot)=      -0.02234077 Eh    -14.02 kcal/mol|
|  sn= 4 | S(rot)=      -0.02261240 Eh    -14.19 kcal/mol|
|  sn= 5 | S(rot)=      -0.02282308 Eh    -14.32 kcal/mol|
|  sn= 6 | S(rot)=      -0.02299523 Eh    -14.43 kcal/mol|
|  sn= 7 | S(rot)=      -0.02314077 Eh    -14.52 kcal/mol|
|  sn= 8 | S(rot)=      -0.02326685 Eh    -14.60 kcal/mol|
|  sn= 9 | S(rot)=      -0.02337806 Eh    -14.67 kcal/mol|
|  sn=10 | S(rot)=      -0.02347754 Eh    -14.73 kcal/mol|
|  sn=11 | S(rot)=      -0.02356753 Eh    -14.79 kcal/mol|
|  sn=12 | S(rot)=      -0.02364968 Eh    -14.84 kcal/mol|
 --------------------------------------------------------

-------------------
GIBBS FREE ENERGY
-------------------

The Gibbs free energy is G = H - T*S

Total enthalpy                    ...   -436.28032249 Eh
Total entropy correction          ...     -0.02398279 Eh    -15.05 kcal/mol
-----------------------------------------------------------------------
Final Gibbs free energy         ...   -436.30430528 Eh

For completeness - the Gibbs free energy minus the electronic energy
G-E(el)                           ...     -0.01840614 Eh    -11.55 kcal/mol

                             ****ORCA TERMINATED NORMALLY****
TOTAL RUN TIME: 0 days 0 hours 0 minutes 27 seconds 77 msec
