                         Program Version 4.2.0 -  RELEASE  -
|  1> #
|  2> # 14_F2 scanfunc/aug-cc-pvt(+d)z
|  3> #
|  4> ! scanfunc d3bj aug-cc-pvt(+d)z def2/j opt xyzfile numfreq
|  5>
|  6> *xyz 0 1
|  7> F           -0.000000102         -0.000000195         -0.694208668
|  8> F            0.000000102          0.000000195          0.694208668
|  9> *
| 10>
| 11> %pal
| 12> nprocs 24
| 13> end
| 14>
| 15>
| 16>                          ****END OF INPUT****
 Total Charge           Charge          ....    0
 Multiplicity           Mult            ....    1
 Number of Electrons    NEL             ....   18
Dispersion correction           -0.000035912
FINAL SINGLE POINT ENERGY      -199.549331653208
Dispersion correction            ... done
Dispersion correction           -0.000035912
FINAL SINGLE POINT ENERGY      -199.549370004879
Dispersion correction            ... done
                    ***********************HURRAY********************

CARTESIAN COORDINATES (ANGSTROEM)
---------------------------------
  F     -0.000000   -0.000000   -0.695412
  F      0.000000    0.000000    0.695412

 Multiplicity           Mult            ....    1
 Number of Electrons    NEL             ....   18
 Basis Dimension        Dim             ....   92

ORBITAL ENERGIES
----------------

  NO   OCC          E(Eh)            E(eV)
   0   2.0000     -24.558076      -668.2592
   1   2.0000     -24.558066      -668.2590
   2   2.0000      -1.318397       -35.8754
   3   2.0000      -1.072839       -29.1934
   4   2.0000      -0.576811       -15.6958
   5   2.0000      -0.500756       -13.6263
   6   2.0000      -0.500756       -13.6263
   7   2.0000      -0.366612        -9.9760
   8   2.0000      -0.366612        -9.9760
   9   0.0000      -0.185647        -5.0517
  10   0.0000       0.106566         2.8998
  11   0.0000       0.106722         2.9041
  12   0.0000       0.141857         3.8601
  13   0.0000       0.141857         3.8601

MULLIKEN ATOMIC CHARGES
-----------------------
   0 F :    0.000000
   1 F :   -0.000000
Sum of atomic charges:   -0.0000000

LOEWDIN ATOMIC CHARGES
----------------------
   0 F :    0.000000
   1 F :   -0.000000

  Mayer bond orders larger than 0.100000
B(  0-F ,  1-F ) :   0.8245

Dispersion correction           -0.000035913
FINAL SINGLE POINT ENERGY      -199.549371667764

DIPOLE MOMENT
-------------
                                X             Y             Z
Electronic contribution:     -0.00000       0.00000      -0.00000
Nuclear contribution   :      0.00000       0.00000       0.00000
                        -----------------------------------------
Total Dipole Moment    :     -0.00000       0.00000      -0.00000
                        -----------------------------------------
Magnitude (a.u.)       :      0.00000
Magnitude (Debye)      :      0.00000

VIBRATIONAL FREQUENCIES
-----------------------

Scaling factor for frequencies =  1.000000000 (already applied!)

   0:         0.00 cm**-1
   1:         0.00 cm**-1
   2:         0.00 cm**-1
   3:         0.00 cm**-1
   4:         0.00 cm**-1
   5:      1071.21 cm**-1

IR SPECTRUM
-----------

 Mode    freq (cm**-1)   T**2         TX         TY         TZ
-------------------------------------------------------------------
   5:      1071.21    0.000000  ( -0.000000  -0.000000  -0.000001)

--------------------------
THERMOCHEMISTRY AT 298.15K
--------------------------

Temperature         ... 298.15 K
Pressure            ... 1.00 atm
Total Mass          ... 38.00 AMU
The molecule is recognized as being linear

Throughout the following assumptions are being made:
  (1) The electronic state is orbitally nondegenerate
  (2) There are no thermally accessible electronically excited states
  (3) Hindered rotations indicated by low frequency modes are not
      treated as such but are treated as vibrations and this may
      cause some error
  (4) All equations used are the standard statistical mechanics
      equations for an ideal gas
  (5) All vibrations are strictly harmonic

freq.    1071.21  E(vib)   ...       0.02

------------
INNER ENERGY
------------

The inner energy is: U= E(el) + E(ZPE) + E(vib) + E(rot) + E(trans)
    E(el)   - is the total energy from the electronic structure calculation
              = E(kin-el) + E(nuc-el) + E(el-el) + E(nuc-nuc)
    E(ZPE)  - the the zero temperature vibrational energy from the frequency calculation
    E(vib)  - the the finite temperature correction to E(ZPE) due to population
              of excited vibrational states
    E(rot)  - is the rotational thermal energy
    E(trans)- is the translational thermal energy

Summary of contributions to the inner energy U:
Electronic energy                ...   -199.54937152 Eh
Zero point energy                ...      0.00244039 Eh       1.53 kcal/mol
Thermal vibrational correction   ...      0.00002793 Eh       0.02 kcal/mol
Thermal rotational correction    ...      0.00094418 Eh       0.59 kcal/mol
Thermal translational correction ...      0.00141627 Eh       0.89 kcal/mol
-----------------------------------------------------------------------
Total thermal energy                   -199.54454275 Eh

Summary of corrections to the electronic energy:
(perhaps to be used in another calculation)
Total thermal correction                  0.00238838 Eh       1.50 kcal/mol
Non-thermal (ZPE) correction              0.00244039 Eh       1.53 kcal/mol
-----------------------------------------------------------------------
Total correction                          0.00482877 Eh       3.03 kcal/mol

--------
ENTHALPY
--------

The enthalpy is H = U + kB*T
                kB is Boltzmann's constant
Total free energy                 ...   -199.54454275 Eh
Thermal Enthalpy correction       ...      0.00094421 Eh       0.59 kcal/mol
-----------------------------------------------------------------------
Total Enthalpy                    ...   -199.54359854 Eh

Note: Rotational entropy computed according to Herzberg
Infrared and Raman Spectra, Chapter V,1, Van Nostrand Reinhold, 1945
Point Group:  Dinfh, Symmetry Number:   2
Rotational constants in cm-1:     0.000000     0.917432     0.917432

Vibrational entropy computed according to the QRRHO of S. Grimme
Chem.Eur.J. 2012 18 9955

-------
ENTROPY
-------

The entropy contributions are T*S = T*(S(el)+S(vib)+S(rot)+S(trans))
     S(el)   - electronic entropy
     S(vib)  - vibrational entropy
     S(rot)  - rotational entropy
     S(trans)- translational entropy
The entropies will be listed as mutliplied by the temperature to get
units of energy

Electronic entropy                ...      0.00000000 Eh      0.00 kcal/mol
Vibrational entropy               ...      0.00003333 Eh      0.02 kcal/mol
Rotational entropy                ...      0.00540717 Eh      3.39 kcal/mol
Translational entropy             ...      0.01750073 Eh     10.98 kcal/mol
-----------------------------------------------------------------------
Final entropy term                ...      0.02294123 Eh     14.40 kcal/mol

In case the symmetry of your molecule has not been determined correctly
or in case you have a reason to use a different symmetry number we print
out the resulting rotational entropy values for sn=1,12 :
 --------------------------------------------------------
|  sn= 1 | S(rot)=      -0.02113837 Eh    -13.26 kcal/mol|
|  sn= 2 | S(rot)=      -0.02179283 Eh    -13.68 kcal/mol|
|  sn= 3 | S(rot)=      -0.02217566 Eh    -13.92 kcal/mol|
|  sn= 4 | S(rot)=      -0.02244729 Eh    -14.09 kcal/mol|
|  sn= 5 | S(rot)=      -0.02265797 Eh    -14.22 kcal/mol|
|  sn= 6 | S(rot)=      -0.02283012 Eh    -14.33 kcal/mol|
|  sn= 7 | S(rot)=      -0.02297566 Eh    -14.42 kcal/mol|
|  sn= 8 | S(rot)=      -0.02310174 Eh    -14.50 kcal/mol|
|  sn= 9 | S(rot)=      -0.02321295 Eh    -14.57 kcal/mol|
|  sn=10 | S(rot)=      -0.02331243 Eh    -14.63 kcal/mol|
|  sn=11 | S(rot)=      -0.02340242 Eh    -14.69 kcal/mol|
|  sn=12 | S(rot)=      -0.02348458 Eh    -14.74 kcal/mol|
 --------------------------------------------------------

-------------------
GIBBS FREE ENERGY
-------------------

The Gibbs free energy is G = H - T*S

Total enthalpy                    ...   -199.54359854 Eh
Total entropy correction          ...     -0.02294123 Eh    -14.40 kcal/mol
-----------------------------------------------------------------------
Final Gibbs free energy         ...   -199.56653977 Eh

For completeness - the Gibbs free energy minus the electronic energy
G-E(el)                           ...     -0.01716825 Eh    -10.77 kcal/mol

                             ****ORCA TERMINATED NORMALLY****
TOTAL RUN TIME: 0 days 0 hours 0 minutes 15 seconds 510 msec
