                         Program Version 4.2.0 -  RELEASE  -
|  1> #
|  2> # 15_H2CO scanfunc/aug-cc-pvt(+d)z
|  3> #
|  4> ! scanfunc d3bj aug-cc-pvt(+d)z def2/j opt xyzfile numfreq
|  5>
|  6> *xyz 0 1
|  7> C           -0.008748659          0.001155597          0.000561564
|  8> O            1.179984630         -0.157249909         -0.074738871
|  9> H           -0.478730294          0.986582604         -0.186527529
| 10> H           -0.692514064         -0.830555519          0.260712785
| 11> *
| 12>
| 13> %pal
| 14> nprocs 24
| 15> end
| 16>
| 17>
| 18>                          ****END OF INPUT****
 Total Charge           Charge          ....    0
 Multiplicity           Mult            ....    1
 Number of Electrons    NEL             ....   16
Dispersion correction           -0.000232370
FINAL SINGLE POINT ENERGY      -114.496968884651
Dispersion correction            ... done
Dispersion correction           -0.000232448
FINAL SINGLE POINT ENERGY      -114.495375641672
Dispersion correction            ... done
Dispersion correction           -0.000232451
FINAL SINGLE POINT ENERGY      -114.495211587782
Dispersion correction            ... done
FINAL SINGLE POINT ENERGY      -114.495080028050
Dispersion correction            ... done
Dispersion correction           -0.000232451
FINAL SINGLE POINT ENERGY      -114.495011378880
Dispersion correction            ... done
Dispersion correction           -0.000232451
FINAL SINGLE POINT ENERGY      -114.495002039960
Dispersion correction            ... done
                    ***********************HURRAY********************

CARTESIAN COORDINATES (ANGSTROEM)
---------------------------------
  C     -0.025240    0.003437    0.002346
  O      1.139205   -0.151812   -0.072412
  H     -0.447995    1.000279   -0.192908
  H     -0.665977   -0.851971    0.262981

 Multiplicity           Mult            ....    1
 Number of Electrons    NEL             ....   16
 Basis Dimension        Dim             ....  138

ORBITAL ENERGIES
----------------

  NO   OCC          E(Eh)            E(eV)
   0   2.0000     -18.992662      -516.8166
   1   2.0000     -10.120507      -275.3930
   2   2.0000      -1.047932       -28.5157
   3   2.0000      -0.601898       -16.3785
   4   2.0000      -0.476969       -12.9790
   5   2.0000      -0.419009       -11.4018
   6   2.0000      -0.388469       -10.5708
   7   2.0000      -0.233969        -6.3666
   8   0.0000      -0.079950        -2.1756
   9   0.0000       0.010081         0.2743
  10   0.0000       0.035690         0.9712
  11   0.0000       0.051209         1.3935
  12   0.0000       0.063174         1.7190

MULLIKEN ATOMIC CHARGES
-----------------------
   0 C :   -0.346053
   1 O :   -0.417565
   2 H :    0.375190
   3 H :    0.388427
Sum of atomic charges:    0.0000000

LOEWDIN ATOMIC CHARGES
----------------------
   0 C :    0.035345
   1 O :    0.440213
   2 H :   -0.237379
   3 H :   -0.238179

  Mayer bond orders larger than 0.100000
B(  0-C ,  1-O ) :   1.9730 B(  0-C ,  2-H ) :   0.7612 B(  0-C ,  3-H ) :   0.7358

Dispersion correction           -0.000232451
FINAL SINGLE POINT ENERGY      -114.495000897026

DIPOLE MOMENT
-------------
                                X             Y             Z
Electronic contribution:      1.19915      -0.16087      -0.07513
Nuclear contribution   :     -2.08638       0.27786       0.13141
                        -----------------------------------------
Total Dipole Moment    :     -0.88723       0.11699       0.05628
                        -----------------------------------------
Magnitude (a.u.)       :      0.89668
Magnitude (Debye)      :      2.27919

VIBRATIONAL FREQUENCIES
-----------------------

Scaling factor for frequencies =  1.000000000 (already applied!)

   0:         0.00 cm**-1
   1:         0.00 cm**-1
   2:         0.00 cm**-1
   3:         0.00 cm**-1
   4:         0.00 cm**-1
   5:         0.00 cm**-1
   6:      1221.17 cm**-1
   7:      1338.27 cm**-1
   8:      1533.75 cm**-1
   9:      1969.61 cm**-1
  10:      2909.87 cm**-1
  11:      2972.30 cm**-1

IR SPECTRUM
-----------

 Mode    freq (cm**-1)   T**2         TX         TY         TZ
-------------------------------------------------------------------
   6:      1221.17    5.423154  ( -0.192499  -0.410908  -2.284131)
   7:      1338.27   15.766187  ( -0.598940  -3.816417   0.917834)
   8:      1533.75    5.191305  (  2.233768  -0.419059  -0.161174)
   9:      1969.61  131.571668  (-11.332689   1.642031   0.667513)
  10:      2909.87   77.571588  ( -8.666280   1.467098   0.561071)
  11:      2972.30  125.006629  (  0.937636  10.849135  -2.534511)

--------------------------
THERMOCHEMISTRY AT 298.15K
--------------------------

Temperature         ... 298.15 K
Pressure            ... 1.00 atm
Total Mass          ... 30.03 AMU

Throughout the following assumptions are being made:
  (1) The electronic state is orbitally nondegenerate
  (2) There are no thermally accessible electronically excited states
  (3) Hindered rotations indicated by low frequency modes are not
      treated as such but are treated as vibrations and this may
      cause some error
  (4) All equations used are the standard statistical mechanics
      equations for an ideal gas
  (5) All vibrations are strictly harmonic

freq.    1221.17  E(vib)   ...       0.01
freq.    1338.27  E(vib)   ...       0.01
freq.    1533.75  E(vib)   ...       0.00
freq.    1969.61  E(vib)   ...       0.00
freq.    2909.87  E(vib)   ...       0.00
freq.    2972.30  E(vib)   ...       0.00

------------
INNER ENERGY
------------

The inner energy is: U= E(el) + E(ZPE) + E(vib) + E(rot) + E(trans)
    E(el)   - is the total energy from the electronic structure calculation
              = E(kin-el) + E(nuc-el) + E(el-el) + E(nuc-nuc)
    E(ZPE)  - the the zero temperature vibrational energy from the frequency calculation
    E(vib)  - the the finite temperature correction to E(ZPE) due to population
              of excited vibrational states
    E(rot)  - is the rotational thermal energy
    E(trans)- is the translational thermal energy

Summary of contributions to the inner energy U:
Electronic energy                ...   -114.49500089 Eh
Zero point energy                ...      0.02721267 Eh      17.08 kcal/mol
Thermal vibrational correction   ...      0.00002993 Eh       0.02 kcal/mol
Thermal rotational correction    ...      0.00141627 Eh       0.89 kcal/mol
Thermal translational correction ...      0.00141627 Eh       0.89 kcal/mol
-----------------------------------------------------------------------
Total thermal energy                   -114.46492574 Eh

Summary of corrections to the electronic energy:
(perhaps to be used in another calculation)
Total thermal correction                  0.00286247 Eh       1.80 kcal/mol
Non-thermal (ZPE) correction              0.02721267 Eh      17.08 kcal/mol
-----------------------------------------------------------------------
Total correction                          0.03007514 Eh      18.87 kcal/mol

--------
ENTHALPY
--------

The enthalpy is H = U + kB*T
                kB is Boltzmann's constant
Total free energy                 ...   -114.46492574 Eh
Thermal Enthalpy correction       ...      0.00094421 Eh       0.59 kcal/mol
-----------------------------------------------------------------------
Total Enthalpy                    ...   -114.46398154 Eh

Note: Only C1 symmetry has been detected, increase convergence thresholds
      if your molecule has a higher symmetry. Symmetry factor of 1.0 is
      used for the rotational entropy correction.

Note: Rotational entropy computed according to Herzberg
Infrared and Raman Spectra, Chapter V,1, Van Nostrand Reinhold, 1945
Point Group:  C1, Symmetry Number:   1
Rotational constants in cm-1:     9.073797     1.375170     1.194187

Vibrational entropy computed according to the QRRHO of S. Grimme
Chem.Eur.J. 2012 18 9955

-------
ENTROPY
-------

The entropy contributions are T*S = T*(S(el)+S(vib)+S(rot)+S(trans))
     S(el)   - electronic entropy
     S(vib)  - vibrational entropy
     S(rot)  - rotational entropy
     S(trans)- translational entropy
The entropies will be listed as mutliplied by the temperature to get
units of energy

Electronic entropy                ...      0.00000000 Eh      0.00 kcal/mol
Vibrational entropy               ...      0.00003468 Eh      0.02 kcal/mol
Rotational entropy                ...      0.00823549 Eh      5.17 kcal/mol
Translational entropy             ...      0.01716732 Eh     10.77 kcal/mol
-----------------------------------------------------------------------
Final entropy term                ...      0.02543748 Eh     15.96 kcal/mol

In case the symmetry of your molecule has not been determined correctly
or in case you have a reason to use a different symmetry number we print
out the resulting rotational entropy values for sn=1,12 :
 --------------------------------------------------------
|  sn= 1 | S(rot)=       0.00823549 Eh      5.17 kcal/mol|
|  sn= 2 | S(rot)=       0.00758103 Eh      4.76 kcal/mol|
|  sn= 3 | S(rot)=       0.00719820 Eh      4.52 kcal/mol|
|  sn= 4 | S(rot)=       0.00692658 Eh      4.35 kcal/mol|
|  sn= 5 | S(rot)=       0.00671589 Eh      4.21 kcal/mol|
|  sn= 6 | S(rot)=       0.00654374 Eh      4.11 kcal/mol|
|  sn= 7 | S(rot)=       0.00639820 Eh      4.01 kcal/mol|
|  sn= 8 | S(rot)=       0.00627212 Eh      3.94 kcal/mol|
|  sn= 9 | S(rot)=       0.00616091 Eh      3.87 kcal/mol|
|  sn=10 | S(rot)=       0.00606143 Eh      3.80 kcal/mol|
|  sn=11 | S(rot)=       0.00597144 Eh      3.75 kcal/mol|
|  sn=12 | S(rot)=       0.00588929 Eh      3.70 kcal/mol|
 --------------------------------------------------------

-------------------
GIBBS FREE ENERGY
-------------------

The Gibbs free energy is G = H - T*S

Total enthalpy                    ...   -114.46398154 Eh
Total entropy correction          ...     -0.02543748 Eh    -15.96 kcal/mol
-----------------------------------------------------------------------
Final Gibbs free energy         ...   -114.48941902 Eh

For completeness - the Gibbs free energy minus the electronic energy
G-E(el)                           ...      0.00558187 Eh      3.50 kcal/mol

                             ****ORCA TERMINATED NORMALLY****
TOTAL RUN TIME: 0 days 0 hours 0 minutes 37 seconds 83 msec
