                         Program Version 4.2.0 -  RELEASE  -
|  1> #
|  2> # 16_H2CS scanfunc/aug-cc-pvt(+d)z
|  3> #
|  4> ! scanfunc d3bj aug-cc-pvt(+d)z def2/j opt xyzfile numfreq
|  5>
|  6> *xyz 0 1
|  7> C           -0.111638623          0.008887387          0.001240584
|  8> S            1.485344299         -0.118821268         -0.016313713
|  9> H           -0.659438957          0.273908722          0.905432026
| 10> H           -0.714270859         -0.164037136         -0.890279494
| 11> *
| 12>
| 13> %pal
| 14> nprocs 24
| 15> end
| 16>
| 17>
| 18>                          ****END OF INPUT****
 Total Charge           Charge          ....    0
 Multiplicity           Mult            ....    1
 Number of Electrons    NEL             ....   24
Dispersion correction           -0.000374458
FINAL SINGLE POINT ENERGY      -437.536581798932
Dispersion correction            ... done
Dispersion correction           -0.000374029
FINAL SINGLE POINT ENERGY      -437.535583079184
Dispersion correction            ... done
Dispersion correction           -0.000373399
FINAL SINGLE POINT ENERGY      -437.531384797074
Dispersion correction            ... done
FINAL SINGLE POINT ENERGY      -437.530943534057
Dispersion correction            ... done
Dispersion correction           -0.000373342
FINAL SINGLE POINT ENERGY      -437.530893680591
Dispersion correction            ... done
Dispersion correction           -0.000373346
FINAL SINGLE POINT ENERGY      -437.530926391669
Dispersion correction            ... done
                    ***********************HURRAY********************

CARTESIAN COORDINATES (ANGSTROEM)
---------------------------------
  C     -0.089570    0.004981    0.000347
  S      1.573709   -0.125007   -0.015777
  H     -0.713993    0.271124    0.874014
  H     -0.770151   -0.151160   -0.858505

 Multiplicity           Mult            ....    1
 Number of Electrons    NEL             ....   24
 Basis Dimension        Dim             ....  147

ORBITAL ENERGIES
----------------

  NO   OCC          E(Eh)            E(eV)
   0   2.0000     -88.545696     -2409.4509
   1   2.0000     -10.104307      -274.9522
   2   2.0000      -7.895203      -214.8394
   3   2.0000      -5.839385      -158.8977
   4   2.0000      -5.835648      -158.7961
   5   2.0000      -5.821581      -158.4133
   6   2.0000      -0.751513       -20.4497
   7   2.0000      -0.582679       -15.8555
   8   2.0000      -0.419910       -11.4263
   9   2.0000      -0.379118       -10.3163
  10   2.0000      -0.298554        -8.1241
  11   2.0000      -0.215199        -5.8559
  12   0.0000      -0.134812        -3.6684
  13   0.0000       0.001201         0.0327
  14   0.0000       0.030813         0.8385
  15   0.0000       0.033754         0.9185
  16   0.0000       0.058854         1.6015

MULLIKEN ATOMIC CHARGES
-----------------------
   0 C :   -0.647267
   1 S :   -0.045964
   2 H :    0.348259
   3 H :    0.344972
Sum of atomic charges:   -0.0000000

LOEWDIN ATOMIC CHARGES
----------------------
   0 C :   -0.201885
   1 S :    0.821271
   2 H :   -0.310264
   3 H :   -0.309122

  Mayer bond orders larger than 0.100000
B(  0-C ,  1-S ) :   1.7959 B(  0-C ,  2-H ) :   0.7435 B(  0-C ,  3-H ) :   0.7457

Dispersion correction           -0.000373346
FINAL SINGLE POINT ENERGY      -437.530928382592

DIPOLE MOMENT
-------------
                                X             Y             Z
Electronic contribution:      2.62469      -0.20932      -0.02567
Nuclear contribution   :     -3.35727       0.26957       0.03449
                        -----------------------------------------
Total Dipole Moment    :     -0.73258       0.06025       0.00882
                        -----------------------------------------
Magnitude (a.u.)       :      0.73511
Magnitude (Debye)      :      1.86850

VIBRATIONAL FREQUENCIES
-----------------------

Scaling factor for frequencies =  1.000000000 (already applied!)

   0:         0.00 cm**-1
   1:         0.00 cm**-1
   2:         0.00 cm**-1
   3:         0.00 cm**-1
   4:         0.00 cm**-1
   5:         0.00 cm**-1
   6:       788.04 cm**-1
   7:       983.45 cm**-1
   8:      1117.50 cm**-1
   9:      1512.36 cm**-1
  10:      2911.40 cm**-1
  11:      2918.72 cm**-1

IR SPECTRUM
-----------

 Mode    freq (cm**-1)   T**2         TX         TY         TZ
-------------------------------------------------------------------
   6:       788.04   15.715407  ( -3.957083   0.234541   0.043448)
   7:       983.45    4.957384  ( -0.024690   0.478457   2.174363)
   8:      1117.50   41.375242  ( -0.657508  -6.216796   1.514720)
   9:      1512.36    5.220050  ( -2.274797   0.186234   0.103281)
  10:      2911.40   32.483852  ( -5.679888   0.339390  -0.327934)
  11:      2918.72   10.781074  ( -0.569465   0.817597   3.128629)

--------------------------
THERMOCHEMISTRY AT 298.15K
--------------------------

Temperature         ... 298.15 K
Pressure            ... 1.00 atm
Total Mass          ... 46.09 AMU

Throughout the following assumptions are being made:
  (1) The electronic state is orbitally nondegenerate
  (2) There are no thermally accessible electronically excited states
  (3) Hindered rotations indicated by low frequency modes are not
      treated as such but are treated as vibrations and this may
      cause some error
  (4) All equations used are the standard statistical mechanics
      equations for an ideal gas
  (5) All vibrations are strictly harmonic

freq.     788.04  E(vib)   ...       0.05
freq.     983.45  E(vib)   ...       0.02
freq.    1117.50  E(vib)   ...       0.01
freq.    1512.36  E(vib)   ...       0.00
freq.    2911.40  E(vib)   ...       0.00
freq.    2918.72  E(vib)   ...       0.00

------------
INNER ENERGY
------------

The inner energy is: U= E(el) + E(ZPE) + E(vib) + E(rot) + E(trans)
    E(el)   - is the total energy from the electronic structure calculation
              = E(kin-el) + E(nuc-el) + E(el-el) + E(nuc-nuc)
    E(ZPE)  - the the zero temperature vibrational energy from the frequency calculation
    E(vib)  - the the finite temperature correction to E(ZPE) due to population
              of excited vibrational states
    E(rot)  - is the rotational thermal energy
    E(trans)- is the translational thermal energy

Summary of contributions to the inner energy U:
Electronic energy                ...   -437.53092845 Eh
Zero point energy                ...      0.02330899 Eh      14.63 kcal/mol
Thermal vibrational correction   ...      0.00014917 Eh       0.09 kcal/mol
Thermal rotational correction    ...      0.00141627 Eh       0.89 kcal/mol
Thermal translational correction ...      0.00141627 Eh       0.89 kcal/mol
-----------------------------------------------------------------------
Total thermal energy                   -437.50463775 Eh

Summary of corrections to the electronic energy:
(perhaps to be used in another calculation)
Total thermal correction                  0.00298171 Eh       1.87 kcal/mol
Non-thermal (ZPE) correction              0.02330899 Eh      14.63 kcal/mol
-----------------------------------------------------------------------
Total correction                          0.02629070 Eh      16.50 kcal/mol

--------
ENTHALPY
--------

The enthalpy is H = U + kB*T
                kB is Boltzmann's constant
Total free energy                 ...   -437.50463775 Eh
Thermal Enthalpy correction       ...      0.00094421 Eh       0.59 kcal/mol
-----------------------------------------------------------------------
Total Enthalpy                    ...   -437.50369354 Eh

Note: Only C1 symmetry has been detected, increase convergence thresholds
      if your molecule has a higher symmetry. Symmetry factor of 1.0 is
      used for the rotational entropy correction.

Note: Rotational entropy computed according to Herzberg
Infrared and Raman Spectra, Chapter V,1, Van Nostrand Reinhold, 1945
Point Group:  C1, Symmetry Number:   1
Rotational constants in cm-1:    10.507858     0.542860     0.516193

Vibrational entropy computed according to the QRRHO of S. Grimme
Chem.Eur.J. 2012 18 9955

-------
ENTROPY
-------

The entropy contributions are T*S = T*(S(el)+S(vib)+S(rot)+S(trans))
     S(el)   - electronic entropy
     S(vib)  - vibrational entropy
     S(rot)  - rotational entropy
     S(trans)- translational entropy
The entropies will be listed as mutliplied by the temperature to get
units of energy

Electronic entropy                ...      0.00000000 Eh      0.00 kcal/mol
Vibrational entropy               ...      0.00018377 Eh      0.12 kcal/mol
Rotational entropy                ...      0.00900098 Eh      5.65 kcal/mol
Translational entropy             ...      0.01777414 Eh     11.15 kcal/mol
-----------------------------------------------------------------------
Final entropy term                ...      0.02695889 Eh     16.92 kcal/mol

In case the symmetry of your molecule has not been determined correctly
or in case you have a reason to use a different symmetry number we print
out the resulting rotational entropy values for sn=1,12 :
 --------------------------------------------------------
|  sn= 1 | S(rot)=       0.00900098 Eh      5.65 kcal/mol|
|  sn= 2 | S(rot)=       0.00834652 Eh      5.24 kcal/mol|
|  sn= 3 | S(rot)=       0.00796369 Eh      5.00 kcal/mol|
|  sn= 4 | S(rot)=       0.00769207 Eh      4.83 kcal/mol|
|  sn= 5 | S(rot)=       0.00748138 Eh      4.69 kcal/mol|
|  sn= 6 | S(rot)=       0.00730923 Eh      4.59 kcal/mol|
|  sn= 7 | S(rot)=       0.00716369 Eh      4.50 kcal/mol|
|  sn= 8 | S(rot)=       0.00703761 Eh      4.42 kcal/mol|
|  sn= 9 | S(rot)=       0.00692640 Eh      4.35 kcal/mol|
|  sn=10 | S(rot)=       0.00682692 Eh      4.28 kcal/mol|
|  sn=11 | S(rot)=       0.00673693 Eh      4.23 kcal/mol|
|  sn=12 | S(rot)=       0.00665478 Eh      4.18 kcal/mol|
 --------------------------------------------------------

-------------------
GIBBS FREE ENERGY
-------------------

The Gibbs free energy is G = H - T*S

Total enthalpy                    ...   -437.50369354 Eh
Total entropy correction          ...     -0.02695889 Eh    -16.92 kcal/mol
-----------------------------------------------------------------------
Final Gibbs free energy         ...   -437.53065243 Eh

For completeness - the Gibbs free energy minus the electronic energy
G-E(el)                           ...      0.00027603 Eh      0.17 kcal/mol

                             ****ORCA TERMINATED NORMALLY****
TOTAL RUN TIME: 0 days 0 hours 0 minutes 41 seconds 555 msec
