                         Program Version 4.2.0 -  RELEASE  -
|  1> #
|  2> # 17_H2O scanfunc/aug-cc-pvt(+d)z
|  3> #
|  4> ! scanfunc d3bj aug-cc-pvt(+d)z def2/j opt xyzfile numfreq
|  5>
|  6> *xyz 0 1
|  7> O            0.004834854          0.003524701         -0.002982157
|  8> H            0.274272539          0.890632971          0.255471383
|  9> H            0.605092602         -0.239557672         -0.714989224
| 10> *
| 11>
| 12> %pal
| 13> nprocs 24
| 14> end
| 15>
| 16>
| 17>                          ****END OF INPUT****
 Total Charge           Charge          ....    0
 Multiplicity           Mult            ....    1
 Number of Electrons    NEL             ....   10
Dispersion correction           -0.000079395
FINAL SINGLE POINT ENERGY       -76.426049366337
Dispersion correction            ... done
Dispersion correction           -0.000079367
FINAL SINGLE POINT ENERGY       -76.424583041282
Dispersion correction            ... done
Dispersion correction           -0.000079347
FINAL SINGLE POINT ENERGY       -76.421728576320
Dispersion correction            ... done
Dispersion correction           -0.000079343
FINAL SINGLE POINT ENERGY       -76.421101590368
Dispersion correction            ... done
Dispersion correction           -0.000079342
FINAL SINGLE POINT ENERGY       -76.421028387952
Dispersion correction            ... done
                    ***********************HURRAY********************

CARTESIAN COORDINATES (ANGSTROEM)
---------------------------------
  O      0.058024    0.042904   -0.030726
  H      0.236559    0.908979    0.301989
  H      0.589617   -0.297283   -0.733764

 Multiplicity           Mult            ....    1
 Number of Electrons    NEL             ....   10
 Basis Dimension        Dim             ....   92

ORBITAL ENERGIES
----------------

  NO   OCC          E(Eh)            E(eV)
   0   2.0000     -18.972714      -516.2738
   1   2.0000      -0.983625       -26.7658
   2   2.0000      -0.535079       -14.5602
   3   2.0000      -0.330017        -8.9802
   4   2.0000      -0.274352        -7.4655
   5   0.0000      -0.007453        -0.2028
   6   0.0000       0.033143         0.9019
   7   0.0000       0.088502         2.4083
   8   0.0000       0.120378         3.2757
   9   0.0000       0.122374         3.3300

MULLIKEN ATOMIC CHARGES
-----------------------
   0 O :   -0.398988
   1 H :    0.197120
   2 H :    0.201868
Sum of atomic charges:   -0.0000000

LOEWDIN ATOMIC CHARGES
----------------------
   0 O :    1.064162
   1 H :   -0.531866
   2 H :   -0.532296

  Mayer bond orders larger than 0.100000
B(  0-O ,  1-H ) :   1.0077 B(  0-O ,  2-H ) :   1.0313

Dispersion correction           -0.000079342
FINAL SINGLE POINT ENERGY       -76.421027996375

DIPOLE MOMENT
-------------
                                X             Y             Z
Electronic contribution:     -0.11498      -0.08062       0.05605
Nuclear contribution   :      0.59108       0.43773      -0.30824
                        -----------------------------------------
Total Dipole Moment    :      0.47610       0.35711      -0.25219
                        -----------------------------------------
Magnitude (a.u.)       :      0.64638
Magnitude (Debye)      :      1.64296

VIBRATIONAL FREQUENCIES
-----------------------

Scaling factor for frequencies =  1.000000000 (already applied!)

   0:         0.00 cm**-1
   1:         0.00 cm**-1
   2:         0.00 cm**-1
   3:         0.00 cm**-1
   4:         0.00 cm**-1
   5:         0.00 cm**-1
   6:      1367.45 cm**-1
   7:      3952.41 cm**-1
   8:      4181.97 cm**-1

IR SPECTRUM
-----------

 Mode    freq (cm**-1)   T**2         TX         TY         TZ
-------------------------------------------------------------------
   6:      1367.45   98.953821  (  7.451812   5.425305  -3.740372)
   7:      3952.41    2.823061  ( -1.166971  -1.134641   0.416929)
   8:      4181.97  137.891490  ( -2.591608   8.716698   7.429282)

--------------------------
THERMOCHEMISTRY AT 298.15K
--------------------------

Temperature         ... 298.15 K
Pressure            ... 1.00 atm
Total Mass          ... 18.02 AMU

Throughout the following assumptions are being made:
  (1) The electronic state is orbitally nondegenerate
  (2) There are no thermally accessible electronically excited states
  (3) Hindered rotations indicated by low frequency modes are not
      treated as such but are treated as vibrations and this may
      cause some error
  (4) All equations used are the standard statistical mechanics
      equations for an ideal gas
  (5) All vibrations are strictly harmonic

freq.    1367.45  E(vib)   ...       0.01
freq.    3952.41  E(vib)   ...       0.00
freq.    4181.97  E(vib)   ...       0.00

------------
INNER ENERGY
------------

The inner energy is: U= E(el) + E(ZPE) + E(vib) + E(rot) + E(trans)
    E(el)   - is the total energy from the electronic structure calculation
              = E(kin-el) + E(nuc-el) + E(el-el) + E(nuc-nuc)
    E(ZPE)  - the the zero temperature vibrational energy from the frequency calculation
    E(vib)  - the the finite temperature correction to E(ZPE) due to population
              of excited vibrational states
    E(rot)  - is the rotational thermal energy
    E(trans)- is the translational thermal energy

Summary of contributions to the inner energy U:
Electronic energy                ...    -76.42102798 Eh
Zero point energy                ...      0.02164678 Eh      13.58 kcal/mol
Thermal vibrational correction   ...      0.00000850 Eh       0.01 kcal/mol
Thermal rotational correction    ...      0.00141627 Eh       0.89 kcal/mol
Thermal translational correction ...      0.00141627 Eh       0.89 kcal/mol
-----------------------------------------------------------------------
Total thermal energy                    -76.39654016 Eh

Summary of corrections to the electronic energy:
(perhaps to be used in another calculation)
Total thermal correction                  0.00284104 Eh       1.78 kcal/mol
Non-thermal (ZPE) correction              0.02164678 Eh      13.58 kcal/mol
-----------------------------------------------------------------------
Total correction                          0.02448782 Eh      15.37 kcal/mol

--------
ENTHALPY
--------

The enthalpy is H = U + kB*T
                kB is Boltzmann's constant
Total free energy                 ...    -76.39654016 Eh
Thermal Enthalpy correction       ...      0.00094421 Eh       0.59 kcal/mol
-----------------------------------------------------------------------
Total Enthalpy                    ...    -76.39559595 Eh

Note: Rotational entropy computed according to Herzberg
Infrared and Raman Spectra, Chapter V,1, Van Nostrand Reinhold, 1945
Point Group:  Cs, Symmetry Number:   1
Rotational constants in cm-1:    41.027397    12.609875     9.645351

Vibrational entropy computed according to the QRRHO of S. Grimme
Chem.Eur.J. 2012 18 9955

-------
ENTROPY
-------

The entropy contributions are T*S = T*(S(el)+S(vib)+S(rot)+S(trans))
     S(el)   - electronic entropy
     S(vib)  - vibrational entropy
     S(rot)  - rotational entropy
     S(trans)- translational entropy
The entropies will be listed as mutliplied by the temperature to get
units of energy

Electronic entropy                ...      0.00000000 Eh      0.00 kcal/mol
Vibrational entropy               ...      0.00000979 Eh      0.01 kcal/mol
Rotational entropy                ...      0.00549087 Eh      3.45 kcal/mol
Translational entropy             ...      0.01644380 Eh     10.32 kcal/mol
-----------------------------------------------------------------------
Final entropy term                ...      0.02194446 Eh     13.77 kcal/mol

In case the symmetry of your molecule has not been determined correctly
or in case you have a reason to use a different symmetry number we print
out the resulting rotational entropy values for sn=1,12 :
 --------------------------------------------------------
|  sn= 1 | S(rot)=       0.00549087 Eh      3.45 kcal/mol|
|  sn= 2 | S(rot)=       0.00483641 Eh      3.03 kcal/mol|
|  sn= 3 | S(rot)=       0.00445358 Eh      2.79 kcal/mol|
|  sn= 4 | S(rot)=       0.00418195 Eh      2.62 kcal/mol|
|  sn= 5 | S(rot)=       0.00397127 Eh      2.49 kcal/mol|
|  sn= 6 | S(rot)=       0.00379912 Eh      2.38 kcal/mol|
|  sn= 7 | S(rot)=       0.00365358 Eh      2.29 kcal/mol|
|  sn= 8 | S(rot)=       0.00352750 Eh      2.21 kcal/mol|
|  sn= 9 | S(rot)=       0.00341629 Eh      2.14 kcal/mol|
|  sn=10 | S(rot)=       0.00331681 Eh      2.08 kcal/mol|
|  sn=11 | S(rot)=       0.00322682 Eh      2.02 kcal/mol|
|  sn=12 | S(rot)=       0.00314467 Eh      1.97 kcal/mol|
 --------------------------------------------------------

-------------------
GIBBS FREE ENERGY
-------------------

The Gibbs free energy is G = H - T*S

Total enthalpy                    ...    -76.39559595 Eh
Total entropy correction          ...     -0.02194446 Eh    -13.77 kcal/mol
-----------------------------------------------------------------------
Final Gibbs free energy         ...    -76.41754041 Eh

For completeness - the Gibbs free energy minus the electronic energy
G-E(el)                           ...      0.00348757 Eh      2.19 kcal/mol

                             ****ORCA TERMINATED NORMALLY****
TOTAL RUN TIME: 0 days 0 hours 0 minutes 24 seconds 954 msec
