                         Program Version 4.2.0 -  RELEASE  -
|  1> #
|  2> # 18_H2S scanfunc/aug-cc-pvt(+d)z
|  3> #
|  4> ! scanfunc d3bj aug-cc-pvt(+d)z def2/j opt xyzfile numfreq
|  5>
|  6> *xyz 0 1
|  7> S           -0.001470633          0.617319337         -0.000000023
|  8> H            0.970605688         -0.306349104         -0.000000002
|  9> H           -0.969135055         -0.310970228          0.000000025
| 10> *
| 11>
| 12> %pal
| 13> nprocs 24
| 14> end
| 15>
| 16>
| 17>                          ****END OF INPUT****
 Total Charge           Charge          ....    0
 Multiplicity           Mult            ....    1
 Number of Electrons    NEL             ....   18
Dispersion correction           -0.000162332
FINAL SINGLE POINT ENERGY      -399.470165844396
Dispersion correction            ... done
Dispersion correction           -0.000162447
FINAL SINGLE POINT ENERGY      -399.468002558259
Dispersion correction            ... done
Dispersion correction           -0.000162549
FINAL SINGLE POINT ENERGY      -399.461835128849
Dispersion correction            ... done
FINAL SINGLE POINT ENERGY      -399.461129797977
Dispersion correction            ... done
Dispersion correction           -0.000162563
FINAL SINGLE POINT ENERGY      -399.460821988086
Dispersion correction            ... done
Dispersion correction           -0.000162564
FINAL SINGLE POINT ENERGY      -399.460800745298
Dispersion correction            ... done
                    ***********************HURRAY********************

CARTESIAN COORDINATES (ANGSTROEM)
---------------------------------
  S     -0.001754    0.735630   -0.000000
  H      0.860093   -0.365768    0.000000
  H     -0.858339   -0.369862    0.000000

 Multiplicity           Mult            ....    1
 Number of Electrons    NEL             ....   18
 Basis Dimension        Dim             ....  101

ORBITAL ENERGIES
----------------

  NO   OCC          E(Eh)            E(eV)
   0   2.0000     -88.549117     -2409.5440
   1   2.0000      -7.899450      -214.9550
   2   2.0000      -5.842344      -158.9783
   3   2.0000      -5.839258      -158.8943
   4   2.0000      -5.827362      -158.5706
   5   2.0000      -0.700289       -19.0558
   6   2.0000      -0.380044       -10.3415
   7   2.0000      -0.369488       -10.0543
   8   2.0000      -0.241546        -6.5728
   9   0.0000      -0.030856        -0.8396
  10   0.0000      -0.012565        -0.3419
  11   0.0000       0.044087         1.1997
  12   0.0000       0.060521         1.6469
  13   0.0000       0.068245         1.8570

MULLIKEN ATOMIC CHARGES
-----------------------
   0 S :   -0.168908
   1 H :    0.084254
   2 H :    0.084654
Sum of atomic charges:    0.0000000

LOEWDIN ATOMIC CHARGES
----------------------
   0 S :    1.211956
   1 H :   -0.605971
   2 H :   -0.605985

  Mayer bond orders larger than 0.100000
B(  0-S ,  1-H ) :   1.0409 B(  0-S ,  2-H ) :   1.0403

Dispersion correction           -0.000162564
FINAL SINGLE POINT ENERGY      -399.460798813966

DIPOLE MOMENT
-------------
                                X             Y             Z
Electronic contribution:     -0.00365       1.55596      -0.00000
Nuclear contribution   :      0.00465      -1.94985       0.00000
                        -----------------------------------------
Total Dipole Moment    :      0.00100      -0.39389       0.00000
                        -----------------------------------------
Magnitude (a.u.)       :      0.39389
Magnitude (Debye)      :      1.00120

VIBRATIONAL FREQUENCIES
-----------------------

Scaling factor for frequencies =  1.000000000 (already applied!)

   0:         0.00 cm**-1
   1:         0.00 cm**-1
   2:         0.00 cm**-1
   3:         0.00 cm**-1
   4:         0.00 cm**-1
   5:         0.00 cm**-1
   6:      1220.30 cm**-1
   7:      2293.47 cm**-1
   8:      2348.81 cm**-1

IR SPECTRUM
-----------

 Mode    freq (cm**-1)   T**2         TX         TY         TZ
-------------------------------------------------------------------
   6:      1220.30    0.892054  ( -0.014231   0.944379   0.000003)
   7:      2293.47    4.963757  ( -2.227898   0.015074   0.000004)
   8:      2348.81    0.371866  (  0.026686   0.609224  -0.000003)

--------------------------
THERMOCHEMISTRY AT 298.15K
--------------------------

Temperature         ... 298.15 K
Pressure            ... 1.00 atm
Total Mass          ... 34.08 AMU

Throughout the following assumptions are being made:
  (1) The electronic state is orbitally nondegenerate
  (2) There are no thermally accessible electronically excited states
  (3) Hindered rotations indicated by low frequency modes are not
      treated as such but are treated as vibrations and this may
      cause some error
  (4) All equations used are the standard statistical mechanics
      equations for an ideal gas
  (5) All vibrations are strictly harmonic

freq.    1220.30  E(vib)   ...       0.01
freq.    2293.47  E(vib)   ...       0.00
freq.    2348.81  E(vib)   ...       0.00

------------
INNER ENERGY
------------

The inner energy is: U= E(el) + E(ZPE) + E(vib) + E(rot) + E(trans)
    E(el)   - is the total energy from the electronic structure calculation
              = E(kin-el) + E(nuc-el) + E(el-el) + E(nuc-nuc)
    E(ZPE)  - the the zero temperature vibrational energy from the frequency calculation
    E(vib)  - the the finite temperature correction to E(ZPE) due to population
              of excited vibrational states
    E(rot)  - is the rotational thermal energy
    E(trans)- is the translational thermal energy

Summary of contributions to the inner energy U:
Electronic energy                ...   -399.46079876 Eh
Zero point energy                ...      0.01335595 Eh       8.38 kcal/mol
Thermal vibrational correction   ...      0.00001574 Eh       0.01 kcal/mol
Thermal rotational correction    ...      0.00141627 Eh       0.89 kcal/mol
Thermal translational correction ...      0.00141627 Eh       0.89 kcal/mol
-----------------------------------------------------------------------
Total thermal energy                   -399.44459453 Eh

Summary of corrections to the electronic energy:
(perhaps to be used in another calculation)
Total thermal correction                  0.00284828 Eh       1.79 kcal/mol
Non-thermal (ZPE) correction              0.01335595 Eh       8.38 kcal/mol
-----------------------------------------------------------------------
Total correction                          0.01620423 Eh      10.17 kcal/mol

--------
ENTHALPY
--------

The enthalpy is H = U + kB*T
                kB is Boltzmann's constant
Total free energy                 ...   -399.44459453 Eh
Thermal Enthalpy correction       ...      0.00094421 Eh       0.59 kcal/mol
-----------------------------------------------------------------------
Total Enthalpy                    ...   -399.44365032 Eh

Note: Rotational entropy computed according to Herzberg
Infrared and Raman Spectra, Chapter V,1, Van Nostrand Reinhold, 1945
Point Group:  Cs, Symmetry Number:   1
Rotational constants in cm-1:    11.326580     7.299410     4.438816

Vibrational entropy computed according to the QRRHO of S. Grimme
Chem.Eur.J. 2012 18 9955

-------
ENTROPY
-------

The entropy contributions are T*S = T*(S(el)+S(vib)+S(rot)+S(trans))
     S(el)   - electronic entropy
     S(vib)  - vibrational entropy
     S(rot)  - rotational entropy
     S(trans)- translational entropy
The entropies will be listed as mutliplied by the temperature to get
units of energy

Electronic entropy                ...      0.00000000 Eh      0.00 kcal/mol
Vibrational entropy               ...      0.00001839 Eh      0.01 kcal/mol
Rotational entropy                ...      0.00672296 Eh      4.22 kcal/mol
Translational entropy             ...      0.01734652 Eh     10.89 kcal/mol
-----------------------------------------------------------------------
Final entropy term                ...      0.02408787 Eh     15.12 kcal/mol

In case the symmetry of your molecule has not been determined correctly
or in case you have a reason to use a different symmetry number we print
out the resulting rotational entropy values for sn=1,12 :
 --------------------------------------------------------
|  sn= 1 | S(rot)=       0.00672296 Eh      4.22 kcal/mol|
|  sn= 2 | S(rot)=       0.00606850 Eh      3.81 kcal/mol|
|  sn= 3 | S(rot)=       0.00568567 Eh      3.57 kcal/mol|
|  sn= 4 | S(rot)=       0.00541405 Eh      3.40 kcal/mol|
|  sn= 5 | S(rot)=       0.00520336 Eh      3.27 kcal/mol|
|  sn= 6 | S(rot)=       0.00503121 Eh      3.16 kcal/mol|
|  sn= 7 | S(rot)=       0.00488567 Eh      3.07 kcal/mol|
|  sn= 8 | S(rot)=       0.00475959 Eh      2.99 kcal/mol|
|  sn= 9 | S(rot)=       0.00464838 Eh      2.92 kcal/mol|
|  sn=10 | S(rot)=       0.00454890 Eh      2.85 kcal/mol|
|  sn=11 | S(rot)=       0.00445891 Eh      2.80 kcal/mol|
|  sn=12 | S(rot)=       0.00437676 Eh      2.75 kcal/mol|
 --------------------------------------------------------

-------------------
GIBBS FREE ENERGY
-------------------

The Gibbs free energy is G = H - T*S

Total enthalpy                    ...   -399.44365032 Eh
Total entropy correction          ...     -0.02408787 Eh    -15.12 kcal/mol
-----------------------------------------------------------------------
Final Gibbs free energy         ...   -399.46773818 Eh

For completeness - the Gibbs free energy minus the electronic energy
G-E(el)                           ...     -0.00693942 Eh     -4.35 kcal/mol

                             ****ORCA TERMINATED NORMALLY****
TOTAL RUN TIME: 0 days 0 hours 0 minutes 29 seconds 681 msec
