                         Program Version 4.2.0 -  RELEASE  -
|  1> #
|  2> # 19_HCl scanfunc/aug-cc-pvt(+d)z
|  3> #
|  4> ! scanfunc d3bj aug-cc-pvt(+d)z def2/j opt xyzfile numfreq
|  5>
|  6> *xyz 0 1
|  7> Cl           0.640695451         -0.000000005          0.000000019
|  8> H           -0.640695451          0.000000005         -0.000000019
|  9> *
| 10>
| 11> %pal
| 12> nprocs 24
| 13> end
| 14>
| 15>
| 16>                          ****END OF INPUT****
 Total Charge           Charge          ....    0
 Multiplicity           Mult            ....    1
 Number of Electrons    NEL             ....   18
Dispersion correction           -0.000065147
FINAL SINGLE POINT ENERGY      -460.819682817328
Dispersion correction            ... done
Dispersion correction           -0.000065155
FINAL SINGLE POINT ENERGY      -460.812927273779
Dispersion correction            ... done
Dispersion correction           -0.000065154
FINAL SINGLE POINT ENERGY      -460.814271323223
Dispersion correction            ... done
Dispersion correction           -0.000065154
FINAL SINGLE POINT ENERGY      -460.813981673099
Dispersion correction            ... done
Dispersion correction           -0.000065154
FINAL SINGLE POINT ENERGY      -460.813973854744
Dispersion correction            ... done
                    ***********************HURRAY********************

CARTESIAN COORDINATES (ANGSTROEM)
---------------------------------
  Cl     0.594044   -0.000000    0.000000
  H     -0.594044    0.000000   -0.000000

 Multiplicity           Mult            ....    1
 Number of Electrons    NEL             ....   18
 Basis Dimension        Dim             ....   78

ORBITAL ENERGIES
----------------

  NO   OCC          E(Eh)            E(eV)
   0   2.0000    -101.115137     -2751.4828
   1   2.0000      -9.365688      -254.8533
   2   2.0000      -7.102834      -193.2779
   3   2.0000      -7.093904      -193.0350
   4   2.0000      -7.093904      -193.0350
   5   2.0000      -0.826797       -22.4983
   6   2.0000      -0.459457       -12.5025
   7   2.0000      -0.310085        -8.4379
   8   2.0000      -0.310085        -8.4379
   9   0.0000      -0.003924        -0.1068
  10   0.0000       0.051169         1.3924
  11   0.0000       0.077015         2.0957
  12   0.0000       0.087091         2.3699
  13   0.0000       0.087091         2.3699

MULLIKEN ATOMIC CHARGES
-----------------------
   0 Cl:   -0.174931
   1 H :    0.174931
Sum of atomic charges:    0.0000000

LOEWDIN ATOMIC CHARGES
----------------------
   0 Cl:    1.089938
   1 H :   -1.089938

  Mayer bond orders larger than 0.100000
B(  0-Cl,  1-H ) :   1.0902

Dispersion correction           -0.000065154
FINAL SINGLE POINT ENERGY      -460.813973996492

DIPOLE MOMENT
-------------
                                X             Y             Z
Electronic contribution:      0.71911      -0.00000       0.00000
Nuclear contribution   :     -1.12791       0.00000      -0.00000
                        -----------------------------------------
Total Dipole Moment    :     -0.40879       0.00000      -0.00000
                        -----------------------------------------
Magnitude (a.u.)       :      0.40879
Magnitude (Debye)      :      1.03907

VIBRATIONAL FREQUENCIES
-----------------------

Scaling factor for frequencies =  1.000000000 (already applied!)

   0:         0.00 cm**-1
   1:         0.00 cm**-1
   2:         0.00 cm**-1
   3:         0.00 cm**-1
   4:         0.00 cm**-1
   5:      3777.74 cm**-1

IR SPECTRUM
-----------

 Mode    freq (cm**-1)   T**2         TX         TY         TZ
-------------------------------------------------------------------
   5:      3777.74   57.089842  ( -7.555782  -0.000000  -0.000000)

--------------------------
THERMOCHEMISTRY AT 298.15K
--------------------------

Temperature         ... 298.15 K
Pressure            ... 1.00 atm
Total Mass          ... 36.46 AMU
The molecule is recognized as being linear

Throughout the following assumptions are being made:
  (1) The electronic state is orbitally nondegenerate
  (2) There are no thermally accessible electronically excited states
  (3) Hindered rotations indicated by low frequency modes are not
      treated as such but are treated as vibrations and this may
      cause some error
  (4) All equations used are the standard statistical mechanics
      equations for an ideal gas
  (5) All vibrations are strictly harmonic

freq.    3777.74  E(vib)   ...       0.00

------------
INNER ENERGY
------------

The inner energy is: U= E(el) + E(ZPE) + E(vib) + E(rot) + E(trans)
    E(el)   - is the total energy from the electronic structure calculation
              = E(kin-el) + E(nuc-el) + E(el-el) + E(nuc-nuc)
    E(ZPE)  - the the zero temperature vibrational energy from the frequency calculation
    E(vib)  - the the finite temperature correction to E(ZPE) due to population
              of excited vibrational states
    E(rot)  - is the rotational thermal energy
    E(trans)- is the translational thermal energy

Summary of contributions to the inner energy U:
Electronic energy                ...   -460.81397398 Eh
Zero point energy                ...      0.00860633 Eh       5.40 kcal/mol
Thermal vibrational correction   ...      0.00000000 Eh       0.00 kcal/mol
Thermal rotational correction    ...      0.00094418 Eh       0.59 kcal/mol
Thermal translational correction ...      0.00141627 Eh       0.89 kcal/mol
-----------------------------------------------------------------------
Total thermal energy                   -460.80300719 Eh

Summary of corrections to the electronic energy:
(perhaps to be used in another calculation)
Total thermal correction                  0.00236045 Eh       1.48 kcal/mol
Non-thermal (ZPE) correction              0.00860633 Eh       5.40 kcal/mol
-----------------------------------------------------------------------
Total correction                          0.01096679 Eh       6.88 kcal/mol

--------
ENTHALPY
--------

The enthalpy is H = U + kB*T
                kB is Boltzmann's constant
Total free energy                 ...   -460.80300719 Eh
Thermal Enthalpy correction       ...      0.00094421 Eh       0.59 kcal/mol
-----------------------------------------------------------------------
Total Enthalpy                    ...   -460.80206298 Eh

Note: Rotational entropy computed according to Herzberg
Infrared and Raman Spectra, Chapter V,1, Van Nostrand Reinhold, 1945
Point Group:  Cinfv, Symmetry Number:   1
Rotational constants in cm-1:     0.000000    12.184714    12.184714

Vibrational entropy computed according to the QRRHO of S. Grimme
Chem.Eur.J. 2012 18 9955

-------
ENTROPY
-------

The entropy contributions are T*S = T*(S(el)+S(vib)+S(rot)+S(trans))
     S(el)   - electronic entropy
     S(vib)  - vibrational entropy
     S(rot)  - rotational entropy
     S(trans)- translational entropy
The entropies will be listed as mutliplied by the temperature to get
units of energy

Electronic entropy                ...      0.00000000 Eh      0.00 kcal/mol
Vibrational entropy               ...      0.00000000 Eh      0.00 kcal/mol
Rotational entropy                ...      0.00361964 Eh      2.27 kcal/mol
Translational entropy             ...      0.01744233 Eh     10.95 kcal/mol
-----------------------------------------------------------------------
Final entropy term                ...      0.02106197 Eh     13.22 kcal/mol

In case the symmetry of your molecule has not been determined correctly
or in case you have a reason to use a different symmetry number we print
out the resulting rotational entropy values for sn=1,12 :
 --------------------------------------------------------
|  sn= 1 | S(rot)=      -0.01219622 Eh     -7.65 kcal/mol|
|  sn= 2 | S(rot)=      -0.01285068 Eh     -8.06 kcal/mol|
|  sn= 3 | S(rot)=      -0.01323351 Eh     -8.30 kcal/mol|
|  sn= 4 | S(rot)=      -0.01350513 Eh     -8.47 kcal/mol|
|  sn= 5 | S(rot)=      -0.01371582 Eh     -8.61 kcal/mol|
|  sn= 6 | S(rot)=      -0.01388796 Eh     -8.71 kcal/mol|
|  sn= 7 | S(rot)=      -0.01403351 Eh     -8.81 kcal/mol|
|  sn= 8 | S(rot)=      -0.01415959 Eh     -8.89 kcal/mol|
|  sn= 9 | S(rot)=      -0.01427080 Eh     -8.96 kcal/mol|
|  sn=10 | S(rot)=      -0.01437028 Eh     -9.02 kcal/mol|
|  sn=11 | S(rot)=      -0.01446027 Eh     -9.07 kcal/mol|
|  sn=12 | S(rot)=      -0.01454242 Eh     -9.13 kcal/mol|
 --------------------------------------------------------

-------------------
GIBBS FREE ENERGY
-------------------

The Gibbs free energy is G = H - T*S

Total enthalpy                    ...   -460.80206298 Eh
Total entropy correction          ...     -0.02106197 Eh    -13.22 kcal/mol
-----------------------------------------------------------------------
Final Gibbs free energy         ...   -460.82312495 Eh

For completeness - the Gibbs free energy minus the electronic energy
G-E(el)                           ...     -0.00915097 Eh     -5.74 kcal/mol

                             ****ORCA TERMINATED NORMALLY****
TOTAL RUN TIME: 0 days 0 hours 0 minutes 23 seconds 595 msec
