                         Program Version 4.2.0 -  RELEASE  -
|  1> #
|  2> # 20_HCN scanfunc/aug-cc-pvt(+d)z
|  3> #
|  4> ! scanfunc d3bj aug-cc-pvt(+d)z def2/j opt xyzfile numfreq
|  5>
|  6> *xyz 0 1
|  7> C           0.000000000         0.000000000         -0.025909074
|  8> N           0.000000000         0.000000000          1.121277177
|  9> H           0.000000000         0.000000000         -1.095368103
| 10> *
| 11>
| 12> %pal
| 13> nprocs 24
| 14> end
| 15>
| 16>
| 17>                          ****END OF INPUT****
 Total Charge           Charge          ....    0
 Multiplicity           Mult            ....    1
 Number of Electrons    NEL             ....   14
Dispersion correction           -0.000174372
FINAL SINGLE POINT ENERGY       -93.421001448297
Dispersion correction            ... done
Dispersion correction           -0.000174266
FINAL SINGLE POINT ENERGY       -93.419659827514
Dispersion correction            ... done
Dispersion correction           -0.000174235
FINAL SINGLE POINT ENERGY       -93.418618086021
Dispersion correction            ... done
Dispersion correction           -0.000174232
FINAL SINGLE POINT ENERGY       -93.418405306053
Dispersion correction            ... done
Dispersion correction           -0.000174232
FINAL SINGLE POINT ENERGY       -93.418409377292
Dispersion correction            ... done
                    ***********************HURRAY********************

CARTESIAN COORDINATES (ANGSTROEM)
---------------------------------
  C     -0.000000   -0.000000   -0.012766
  N      0.000000    0.000000    1.150284
  H      0.000000    0.000000   -1.137518

 Multiplicity           Mult            ....    1
 Number of Electrons    NEL             ....   14
 Basis Dimension        Dim             ....  115

ORBITAL ENERGIES
----------------

  NO   OCC          E(Eh)            E(eV)
   0   2.0000     -14.161039      -385.3415
   1   2.0000     -10.084497      -274.4131
   2   2.0000      -0.889212       -24.1967
   3   2.0000      -0.568660       -15.4740
   4   2.0000      -0.352202        -9.5839
   5   2.0000      -0.338632        -9.2147
   6   2.0000      -0.338632        -9.2147
   7   0.0000      -0.029225        -0.7953
   8   0.0000      -0.029225        -0.7953
   9   0.0000       0.006365         0.1732
  10   0.0000       0.028263         0.7691
  11   0.0000       0.064483         1.7547

MULLIKEN ATOMIC CHARGES
-----------------------
   0 C :   -0.373357
   1 N :   -0.232676
   2 H :    0.606033
Sum of atomic charges:   -0.0000000

LOEWDIN ATOMIC CHARGES
----------------------
   0 C :    0.060908
   1 N :    0.168343
   2 H :   -0.229251

  Mayer bond orders larger than 0.100000
B(  0-C ,  1-N ) :   2.6185 B(  0-C ,  2-H ) :   0.4878

Dispersion correction           -0.000174232
FINAL SINGLE POINT ENERGY       -93.418419778205

DIPOLE MOMENT
-------------
                                X             Y             Z
Electronic contribution:     -0.00000      -0.00000       0.35229
Nuclear contribution   :      0.00000       0.00000      -1.57806
                        -----------------------------------------
Total Dipole Moment    :     -0.00000      -0.00000      -1.22577
                        -----------------------------------------
Magnitude (a.u.)       :      1.22577
Magnitude (Debye)      :      3.11566

VIBRATIONAL FREQUENCIES
-----------------------

Scaling factor for frequencies =  1.000000000 (already applied!)

   0:         0.00 cm**-1
   1:         0.00 cm**-1
   2:         0.00 cm**-1
   3:         0.00 cm**-1
   4:         0.00 cm**-1
   5:       998.25 cm**-1
   6:       998.31 cm**-1
   7:      1933.68 cm**-1
   8:      2898.31 cm**-1

IR SPECTRUM
-----------

 Mode    freq (cm**-1)   T**2         TX         TY         TZ
-------------------------------------------------------------------
   5:       998.25   44.999461  (  4.696933   4.789393   0.000009)
   6:       998.31   45.000071  ( -4.789449   4.696940   0.000006)
   7:      1933.68    0.414847  (  0.000002  -0.000005   0.644086)
   8:      2898.31   67.783952  (  0.000001   0.000003  -8.233101)

--------------------------
THERMOCHEMISTRY AT 298.15K
--------------------------

Temperature         ... 298.15 K
Pressure            ... 1.00 atm
Total Mass          ... 27.03 AMU
The molecule is recognized as being linear

Throughout the following assumptions are being made:
  (1) The electronic state is orbitally nondegenerate
  (2) There are no thermally accessible electronically excited states
  (3) Hindered rotations indicated by low frequency modes are not
      treated as such but are treated as vibrations and this may
      cause some error
  (4) All equations used are the standard statistical mechanics
      equations for an ideal gas
  (5) All vibrations are strictly harmonic

freq.     998.25  E(vib)   ...       0.02
freq.     998.31  E(vib)   ...       0.02
freq.    1933.68  E(vib)   ...       0.00
freq.    2898.31  E(vib)   ...       0.00

------------
INNER ENERGY
------------

The inner energy is: U= E(el) + E(ZPE) + E(vib) + E(rot) + E(trans)
    E(el)   - is the total energy from the electronic structure calculation
              = E(kin-el) + E(nuc-el) + E(el-el) + E(nuc-nuc)
    E(ZPE)  - the the zero temperature vibrational energy from the frequency calculation
    E(vib)  - the the finite temperature correction to E(ZPE) due to population
              of excited vibrational states
    E(rot)  - is the rotational thermal energy
    E(trans)- is the translational thermal energy

Summary of contributions to the inner energy U:
Electronic energy                ...    -93.41841978 Eh
Zero point energy                ...      0.01555659 Eh       9.76 kcal/mol
Thermal vibrational correction   ...      0.00007498 Eh       0.05 kcal/mol
Thermal rotational correction    ...      0.00094418 Eh       0.59 kcal/mol
Thermal translational correction ...      0.00141627 Eh       0.89 kcal/mol
-----------------------------------------------------------------------
Total thermal energy                    -93.40042775 Eh

Summary of corrections to the electronic energy:
(perhaps to be used in another calculation)
Total thermal correction                  0.00243543 Eh       1.53 kcal/mol
Non-thermal (ZPE) correction              0.01555659 Eh       9.76 kcal/mol
-----------------------------------------------------------------------
Total correction                          0.01799202 Eh      11.29 kcal/mol

--------
ENTHALPY
--------

The enthalpy is H = U + kB*T
                kB is Boltzmann's constant
Total free energy                 ...    -93.40042775 Eh
Thermal Enthalpy correction       ...      0.00094421 Eh       0.59 kcal/mol
-----------------------------------------------------------------------
Total Enthalpy                    ...    -93.39948355 Eh

Note: Rotational entropy computed according to Herzberg
Infrared and Raman Spectra, Chapter V,1, Van Nostrand Reinhold, 1945
Point Group:  Cinfv, Symmetry Number:   1
Rotational constants in cm-1:     0.000000     1.438164     1.438164

Vibrational entropy computed according to the QRRHO of S. Grimme
Chem.Eur.J. 2012 18 9955

-------
ENTROPY
-------

The entropy contributions are T*S = T*(S(el)+S(vib)+S(rot)+S(trans))
     S(el)   - electronic entropy
     S(vib)  - vibrational entropy
     S(rot)  - rotational entropy
     S(trans)- translational entropy
The entropies will be listed as mutliplied by the temperature to get
units of energy

Electronic entropy                ...      0.00000000 Eh      0.00 kcal/mol
Vibrational entropy               ...      0.00009044 Eh      0.06 kcal/mol
Rotational entropy                ...      0.00563718 Eh      3.54 kcal/mol
Translational entropy             ...      0.01701823 Eh     10.68 kcal/mol
-----------------------------------------------------------------------
Final entropy term                ...      0.02274585 Eh     14.27 kcal/mol

In case the symmetry of your molecule has not been determined correctly
or in case you have a reason to use a different symmetry number we print
out the resulting rotational entropy values for sn=1,12 :
 --------------------------------------------------------
|  sn= 1 | S(rot)=      -0.00891748 Eh     -5.60 kcal/mol|
|  sn= 2 | S(rot)=      -0.00957194 Eh     -6.01 kcal/mol|
|  sn= 3 | S(rot)=      -0.00995477 Eh     -6.25 kcal/mol|
|  sn= 4 | S(rot)=      -0.01022639 Eh     -6.42 kcal/mol|
|  sn= 5 | S(rot)=      -0.01043708 Eh     -6.55 kcal/mol|
|  sn= 6 | S(rot)=      -0.01060923 Eh     -6.66 kcal/mol|
|  sn= 7 | S(rot)=      -0.01075477 Eh     -6.75 kcal/mol|
|  sn= 8 | S(rot)=      -0.01088085 Eh     -6.83 kcal/mol|
|  sn= 9 | S(rot)=      -0.01099206 Eh     -6.90 kcal/mol|
|  sn=10 | S(rot)=      -0.01109154 Eh     -6.96 kcal/mol|
|  sn=11 | S(rot)=      -0.01118153 Eh     -7.02 kcal/mol|
|  sn=12 | S(rot)=      -0.01126368 Eh     -7.07 kcal/mol|
 --------------------------------------------------------

-------------------
GIBBS FREE ENERGY
-------------------

The Gibbs free energy is G = H - T*S

Total enthalpy                    ...    -93.39948355 Eh
Total entropy correction          ...     -0.02274585 Eh    -14.27 kcal/mol
-----------------------------------------------------------------------
Final Gibbs free energy         ...    -93.42222940 Eh

For completeness - the Gibbs free energy minus the electronic energy
G-E(el)                           ...     -0.00380962 Eh     -2.39 kcal/mol

                             ****ORCA TERMINATED NORMALLY****
TOTAL RUN TIME: 0 days 0 hours 0 minutes 26 seconds 526 msec
