                         Program Version 4.2.0 -  RELEASE  -
|  1> #
|  2> # 21_HF scanfunc/aug-cc-pvt(+d)z
|  3> #
|  4> ! scanfunc d3bj aug-cc-pvt(+d)z def2/j opt xyzfile numfreq
|  5>
|  6> *xyz 0 1
|  7> F            0.461912633          0.000000024          0.000000002
|  8> H           -0.461912633         -0.000000024         -0.000000002
|  9> *
| 10>
| 11> %pal
| 12> nprocs 24
| 13> end
| 14>
| 15>
| 16>                          ****END OF INPUT****
 Total Charge           Charge          ....    0
 Multiplicity           Mult            ....    1
 Number of Electrons    NEL             ....   10
Dispersion correction           -0.000025065
FINAL SINGLE POINT ENERGY      -100.460172548828
Dispersion correction            ... done
Dispersion correction           -0.000025064
FINAL SINGLE POINT ENERGY      -100.459969515425
Dispersion correction            ... done
Dispersion correction           -0.000025064
FINAL SINGLE POINT ENERGY      -100.459993906784
Dispersion correction            ... done
                    ***********************HURRAY********************

CARTESIAN COORDINATES (ANGSTROEM)
---------------------------------
  F      0.455148    0.000000    0.000000
  H     -0.455148   -0.000000   -0.000000

 Multiplicity           Mult            ....    1
 Number of Electrons    NEL             ....   10
 Basis Dimension        Dim             ....   69

ORBITAL ENERGIES
----------------

  NO   OCC          E(Eh)            E(eV)
   0   2.0000     -24.442888      -665.1248
   1   2.0000      -1.170878       -31.8612
   2   2.0000      -0.511958       -13.9311
   3   2.0000      -0.375287       -10.2121
   4   2.0000      -0.375287       -10.2121
   5   0.0000      -0.007501        -0.2041
   6   0.0000       0.088484         2.4078
   7   0.0000       0.148869         4.0509
   8   0.0000       0.151480         4.1220
   9   0.0000       0.151480         4.1220

MULLIKEN ATOMIC CHARGES
-----------------------
   0 F :   -0.335952
   1 H :    0.335952
Sum of atomic charges:    0.0000000

LOEWDIN ATOMIC CHARGES
----------------------
   0 F :    0.693465
   1 H :   -0.693465

  Mayer bond orders larger than 0.100000
B(  0-F ,  1-H ) :   0.9208

Dispersion correction           -0.000025064
FINAL SINGLE POINT ENERGY      -100.459992665877

DIPOLE MOMENT
-------------
                                X             Y             Z
Electronic contribution:      0.16590       0.00000      -0.00000
Nuclear contribution   :     -0.85348      -0.00000      -0.00000
                        -----------------------------------------
Total Dipole Moment    :     -0.68759      -0.00000      -0.00000
                        -----------------------------------------
Magnitude (a.u.)       :      0.68759
Magnitude (Debye)      :      1.74770

VIBRATIONAL FREQUENCIES
-----------------------

Scaling factor for frequencies =  1.000000000 (already applied!)

   0:         0.00 cm**-1
   1:         0.00 cm**-1
   2:         0.00 cm**-1
   3:         0.00 cm**-1
   4:         0.00 cm**-1
   5:      4266.73 cm**-1

IR SPECTRUM
-----------

 Mode    freq (cm**-1)   T**2         TX         TY         TZ
-------------------------------------------------------------------
   5:      4266.73   93.393585  ( -9.664036  -0.000000  -0.000000)

--------------------------
THERMOCHEMISTRY AT 298.15K
--------------------------

Temperature         ... 298.15 K
Pressure            ... 1.00 atm
Total Mass          ... 20.01 AMU
The molecule is recognized as being linear

Throughout the following assumptions are being made:
  (1) The electronic state is orbitally nondegenerate
  (2) There are no thermally accessible electronically excited states
  (3) Hindered rotations indicated by low frequency modes are not
      treated as such but are treated as vibrations and this may
      cause some error
  (4) All equations used are the standard statistical mechanics
      equations for an ideal gas
  (5) All vibrations are strictly harmonic

freq.    4266.73  E(vib)   ...       0.00

------------
INNER ENERGY
------------

The inner energy is: U= E(el) + E(ZPE) + E(vib) + E(rot) + E(trans)
    E(el)   - is the total energy from the electronic structure calculation
              = E(kin-el) + E(nuc-el) + E(el-el) + E(nuc-nuc)
    E(ZPE)  - the the zero temperature vibrational energy from the frequency calculation
    E(vib)  - the the finite temperature correction to E(ZPE) due to population
              of excited vibrational states
    E(rot)  - is the rotational thermal energy
    E(trans)- is the translational thermal energy

Summary of contributions to the inner energy U:
Electronic energy                ...   -100.45999243 Eh
Zero point energy                ...      0.00972033 Eh       6.10 kcal/mol
Thermal vibrational correction   ...      0.00000000 Eh       0.00 kcal/mol
Thermal rotational correction    ...      0.00094418 Eh       0.59 kcal/mol
Thermal translational correction ...      0.00141627 Eh       0.89 kcal/mol
-----------------------------------------------------------------------
Total thermal energy                   -100.44791165 Eh

Summary of corrections to the electronic energy:
(perhaps to be used in another calculation)
Total thermal correction                  0.00236045 Eh       1.48 kcal/mol
Non-thermal (ZPE) correction              0.00972033 Eh       6.10 kcal/mol
-----------------------------------------------------------------------
Total correction                          0.01208078 Eh       7.58 kcal/mol

--------
ENTHALPY
--------

The enthalpy is H = U + kB*T
                kB is Boltzmann's constant
Total free energy                 ...   -100.44791165 Eh
Thermal Enthalpy correction       ...      0.00094421 Eh       0.59 kcal/mol
-----------------------------------------------------------------------
Total Enthalpy                    ...   -100.44696744 Eh

Note: Rotational entropy computed according to Herzberg
Infrared and Raman Spectra, Chapter V,1, Van Nostrand Reinhold, 1945
Point Group:  Cinfv, Symmetry Number:   1
Rotational constants in cm-1:     0.000000    21.253202    21.253202

Vibrational entropy computed according to the QRRHO of S. Grimme
Chem.Eur.J. 2012 18 9955

-------
ENTROPY
-------

The entropy contributions are T*S = T*(S(el)+S(vib)+S(rot)+S(trans))
     S(el)   - electronic entropy
     S(vib)  - vibrational entropy
     S(rot)  - rotational entropy
     S(trans)- translational entropy
The entropies will be listed as mutliplied by the temperature to get
units of energy

Electronic entropy                ...      0.00000000 Eh      0.00 kcal/mol
Vibrational entropy               ...     -0.00000000 Eh     -0.00 kcal/mol
Rotational entropy                ...      0.00309437 Eh      1.94 kcal/mol
Translational entropy             ...      0.01659227 Eh     10.41 kcal/mol
-----------------------------------------------------------------------
Final entropy term                ...      0.01968663 Eh     12.35 kcal/mol

In case the symmetry of your molecule has not been determined correctly
or in case you have a reason to use a different symmetry number we print
out the resulting rotational entropy values for sn=1,12 :
 --------------------------------------------------------
|  sn= 1 | S(rot)=             -nan Eh      -nan kcal/mol|
|  sn= 2 | S(rot)=             -nan Eh      -nan kcal/mol|
|  sn= 3 | S(rot)=             -nan Eh      -nan kcal/mol|
|  sn= 4 | S(rot)=             -nan Eh      -nan kcal/mol|
|  sn= 5 | S(rot)=             -nan Eh      -nan kcal/mol|
|  sn= 6 | S(rot)=             -nan Eh      -nan kcal/mol|
|  sn= 7 | S(rot)=             -nan Eh      -nan kcal/mol|
|  sn= 8 | S(rot)=             -nan Eh      -nan kcal/mol|
|  sn= 9 | S(rot)=             -nan Eh      -nan kcal/mol|
|  sn=10 | S(rot)=             -nan Eh      -nan kcal/mol|
|  sn=11 | S(rot)=             -nan Eh      -nan kcal/mol|
|  sn=12 | S(rot)=             -nan Eh      -nan kcal/mol|
 --------------------------------------------------------

-------------------
GIBBS FREE ENERGY
-------------------

The Gibbs free energy is G = H - T*S

Total enthalpy                    ...   -100.44696744 Eh
Total entropy correction          ...     -0.01968663 Eh    -12.35 kcal/mol
-----------------------------------------------------------------------
Final Gibbs free energy         ...   -100.46665408 Eh

For completeness - the Gibbs free energy minus the electronic energy
G-E(el)                           ...     -0.00666164 Eh     -4.18 kcal/mol

                             ****ORCA TERMINATED NORMALLY****
TOTAL RUN TIME: 0 days 0 hours 0 minutes 17 seconds 41 msec
