                         Program Version 4.2.0 -  RELEASE  -
|  1> #
|  2> # 22_HNO scanfunc/aug-cc-pvt(+d)z
|  3> #
|  4> ! scanfunc d3bj aug-cc-pvt(+d)z def2/j opt xyzfile numfreq
|  5>
|  6> *xyz 0 1
|  7> N           -0.069457921          0.436213507         -0.000000038
|  8> O            0.951837723         -0.192997589          0.000000094
|  9> H           -0.882379797         -0.243215918         -0.000000056
| 10> *
| 11>
| 12> %pal
| 13> nprocs 24
| 14> end
| 15>
| 16>
| 17>                          ****END OF INPUT****
 Total Charge           Charge          ....    0
 Multiplicity           Mult            ....    1
 Number of Electrons    NEL             ....   16
Dispersion correction           -0.000138252
FINAL SINGLE POINT ENERGY      -130.470653159296
Dispersion correction            ... done
Dispersion correction           -0.000138268
FINAL SINGLE POINT ENERGY      -130.458050739473
Dispersion correction            ... done
Dispersion correction           -0.000138314
FINAL SINGLE POINT ENERGY      -130.459967259873
Dispersion correction            ... done
FINAL SINGLE POINT ENERGY      -130.458700132775
Dispersion correction            ... done
Dispersion correction           -0.000138322
FINAL SINGLE POINT ENERGY      -130.458469359158
Dispersion correction            ... done
Dispersion correction           -0.000138320
FINAL SINGLE POINT ENERGY      -130.458448018925
Dispersion correction            ... done
                    ***********************HURRAY********************

CARTESIAN COORDINATES (ANGSTROEM)
---------------------------------
  N     -0.072168    0.520223   -0.000000
  O      0.873747   -0.233292    0.000000
  H     -0.801579   -0.286931   -0.000000

 Multiplicity           Mult            ....    1
 Number of Electrons    NEL             ....   16
 Basis Dimension        Dim             ....  115

ORBITAL ENERGIES
----------------

  NO   OCC          E(Eh)            E(eV)
   0   2.0000     -19.060309      -518.6574
   1   2.0000     -14.274968      -388.4416
   2   2.0000      -1.153088       -31.3771
   3   2.0000      -0.684522       -18.6268
   4   2.0000      -0.502405       -13.6711
   5   2.0000      -0.444701       -12.1009
   6   2.0000      -0.424959       -11.5637
   7   2.0000      -0.214679        -5.8417
   8   0.0000      -0.155282        -4.2254
   9   0.0000      -0.001060        -0.0288
  10   0.0000       0.064824         1.7640
  11   0.0000       0.070048         1.9061
  12   0.0000       0.090062         2.4507

MULLIKEN ATOMIC CHARGES
-----------------------
   0 N :   -0.008225
   1 O :   -0.242913
   2 H :    0.251138
Sum of atomic charges:   -0.0000000

LOEWDIN ATOMIC CHARGES
----------------------
   0 N :    0.201693
   1 O :    0.257471
   2 H :   -0.459164

  Mayer bond orders larger than 0.100000
B(  0-N ,  1-O ) :   1.6058 B(  0-N ,  2-H ) :   0.8577

Dispersion correction           -0.000138320
FINAL SINGLE POINT ENERGY      -130.458456925907

DIPOLE MOMENT
-------------
                                X             Y             Z
Electronic contribution:      0.58949       0.12632       0.00000
Nuclear contribution   :     -1.11530      -0.37068      -0.00000
                        -----------------------------------------
Total Dipole Moment    :     -0.52581      -0.24436      -0.00000
                        -----------------------------------------
Magnitude (a.u.)       :      0.57982
Magnitude (Debye)      :      1.47379

VIBRATIONAL FREQUENCIES
-----------------------

Scaling factor for frequencies =  1.000000000 (already applied!)

   0:         0.00 cm**-1
   1:         0.00 cm**-1
   2:         0.00 cm**-1
   3:         0.00 cm**-1
   4:         0.00 cm**-1
   5:         0.00 cm**-1
   6:      1451.22 cm**-1
   7:      1791.81 cm**-1
   8:      2583.83 cm**-1

IR SPECTRUM
-----------

 Mode    freq (cm**-1)   T**2         TX         TY         TZ
-------------------------------------------------------------------
   6:      1451.22   34.154503  (  5.767252   0.945148   0.000001)
   7:      1791.81   72.239478  (  8.271751  -1.953872   0.000001)
   8:      2583.83  140.850286  ( 11.202668   3.917972   0.000000)

--------------------------
THERMOCHEMISTRY AT 298.15K
--------------------------

Temperature         ... 298.15 K
Pressure            ... 1.00 atm
Total Mass          ... 31.01 AMU

Throughout the following assumptions are being made:
  (1) The electronic state is orbitally nondegenerate
  (2) There are no thermally accessible electronically excited states
  (3) Hindered rotations indicated by low frequency modes are not
      treated as such but are treated as vibrations and this may
      cause some error
  (4) All equations used are the standard statistical mechanics
      equations for an ideal gas
  (5) All vibrations are strictly harmonic

freq.    1451.22  E(vib)   ...       0.00
freq.    1791.81  E(vib)   ...       0.00
freq.    2583.83  E(vib)   ...       0.00

------------
INNER ENERGY
------------

The inner energy is: U= E(el) + E(ZPE) + E(vib) + E(rot) + E(trans)
    E(el)   - is the total energy from the electronic structure calculation
              = E(kin-el) + E(nuc-el) + E(el-el) + E(nuc-nuc)
    E(ZPE)  - the the zero temperature vibrational energy from the frequency calculation
    E(vib)  - the the finite temperature correction to E(ZPE) due to population
              of excited vibrational states
    E(rot)  - is the rotational thermal energy
    E(trans)- is the translational thermal energy

Summary of contributions to the inner energy U:
Electronic energy                ...   -130.45845693 Eh
Zero point energy                ...      0.01327458 Eh       8.33 kcal/mol
Thermal vibrational correction   ...      0.00000750 Eh       0.00 kcal/mol
Thermal rotational correction    ...      0.00141627 Eh       0.89 kcal/mol
Thermal translational correction ...      0.00141627 Eh       0.89 kcal/mol
-----------------------------------------------------------------------
Total thermal energy                   -130.44234232 Eh

Summary of corrections to the electronic energy:
(perhaps to be used in another calculation)
Total thermal correction                  0.00284004 Eh       1.78 kcal/mol
Non-thermal (ZPE) correction              0.01327458 Eh       8.33 kcal/mol
-----------------------------------------------------------------------
Total correction                          0.01611462 Eh      10.11 kcal/mol

--------
ENTHALPY
--------

The enthalpy is H = U + kB*T
                kB is Boltzmann's constant
Total free energy                 ...   -130.44234232 Eh
Thermal Enthalpy correction       ...      0.00094421 Eh       0.59 kcal/mol
-----------------------------------------------------------------------
Total Enthalpy                    ...   -130.44139811 Eh

Note: Rotational entropy computed according to Herzberg
Infrared and Raman Spectra, Chapter V,1, Van Nostrand Reinhold, 1945
Point Group:  Cs, Symmetry Number:   1
Rotational constants in cm-1:    15.400103     1.469332     1.341352

Vibrational entropy computed according to the QRRHO of S. Grimme
Chem.Eur.J. 2012 18 9955

-------
ENTROPY
-------

The entropy contributions are T*S = T*(S(el)+S(vib)+S(rot)+S(trans))
     S(el)   - electronic entropy
     S(vib)  - vibrational entropy
     S(rot)  - rotational entropy
     S(trans)- translational entropy
The entropies will be listed as mutliplied by the temperature to get
units of energy

Electronic entropy                ...      0.00000000 Eh      0.00 kcal/mol
Vibrational entropy               ...      0.00000853 Eh      0.01 kcal/mol
Rotational entropy                ...      0.00789963 Eh      4.96 kcal/mol
Translational entropy             ...      0.01721317 Eh     10.80 kcal/mol
-----------------------------------------------------------------------
Final entropy term                ...      0.02512133 Eh     15.76 kcal/mol

In case the symmetry of your molecule has not been determined correctly
or in case you have a reason to use a different symmetry number we print
out the resulting rotational entropy values for sn=1,12 :
 --------------------------------------------------------
|  sn= 1 | S(rot)=       0.00789963 Eh      4.96 kcal/mol|
|  sn= 2 | S(rot)=       0.00724518 Eh      4.55 kcal/mol|
|  sn= 3 | S(rot)=       0.00686234 Eh      4.31 kcal/mol|
|  sn= 4 | S(rot)=       0.00659072 Eh      4.14 kcal/mol|
|  sn= 5 | S(rot)=       0.00638003 Eh      4.00 kcal/mol|
|  sn= 6 | S(rot)=       0.00620789 Eh      3.90 kcal/mol|
|  sn= 7 | S(rot)=       0.00606234 Eh      3.80 kcal/mol|
|  sn= 8 | S(rot)=       0.00593626 Eh      3.73 kcal/mol|
|  sn= 9 | S(rot)=       0.00582505 Eh      3.66 kcal/mol|
|  sn=10 | S(rot)=       0.00572557 Eh      3.59 kcal/mol|
|  sn=11 | S(rot)=       0.00563558 Eh      3.54 kcal/mol|
|  sn=12 | S(rot)=       0.00555343 Eh      3.48 kcal/mol|
 --------------------------------------------------------

-------------------
GIBBS FREE ENERGY
-------------------

The Gibbs free energy is G = H - T*S

Total enthalpy                    ...   -130.44139811 Eh
Total entropy correction          ...     -0.02512133 Eh    -15.76 kcal/mol
-----------------------------------------------------------------------
Final Gibbs free energy         ...   -130.46651943 Eh

For completeness - the Gibbs free energy minus the electronic energy
G-E(el)                           ...     -0.00806250 Eh     -5.06 kcal/mol

                             ****ORCA TERMINATED NORMALLY****
TOTAL RUN TIME: 0 days 0 hours 0 minutes 32 seconds 439 msec
