                         Program Version 4.2.0 -  RELEASE  -
|  1> #
|  2> # 23_HOCl scanfunc/aug-cc-pvt(+d)z
|  3> #
|  4> ! scanfunc d3bj aug-cc-pvt(+d)z def2/j opt xyzfile numfreq
|  5>
|  6> *xyz 0 1
|  7> O           -0.345461674          0.464587564          0.000000200
|  8> Cl           1.234116896         -0.128671365         -0.000000477
|  9> H           -0.888655222         -0.335916194          0.000000276
| 10> *
| 11>
| 12> %pal
| 13> nprocs 24
| 14> end
| 15>
| 16>
| 17>                          ****END OF INPUT****
 Total Charge           Charge          ....    0
 Multiplicity           Mult            ....    1
 Number of Electrons    NEL             ....   26
Dispersion correction           -0.000182836
FINAL SINGLE POINT ENERGY      -535.977444873270
Dispersion correction            ... done
Dispersion correction           -0.000182967
FINAL SINGLE POINT ENERGY      -535.961571833765
Dispersion correction            ... done
Dispersion correction           -0.000182985
FINAL SINGLE POINT ENERGY      -535.952385571365
Dispersion correction            ... done
FINAL SINGLE POINT ENERGY      -535.956219002714
Dispersion correction            ... done
Dispersion correction           -0.000182986
FINAL SINGLE POINT ENERGY      -535.956149642853
Dispersion correction            ... done
Dispersion correction           -0.000182987
FINAL SINGLE POINT ENERGY      -535.956077606070
Dispersion correction            ... done
                    ***********************HURRAY********************

CARTESIAN COORDINATES (ANGSTROEM)
---------------------------------
  O     -0.301935    0.452572    0.000000
  Cl     1.106755   -0.120916   -0.000000
  H     -0.804820   -0.331656    0.000000

 Multiplicity           Mult            ....    1
 Number of Electrons    NEL             ....   26
 Basis Dimension        Dim             ....  124

ORBITAL ENERGIES
----------------

  NO   OCC          E(Eh)            E(eV)
   0   2.0000    -101.138967     -2752.1312
   1   2.0000     -19.051590      -518.4201
   2   2.0000      -9.386443      -255.4181
   3   2.0000      -7.128353      -193.9723
   4   2.0000      -7.112461      -193.5399
   5   2.0000      -7.111990      -193.5271
   6   2.0000      -1.117526       -30.4094
   7   2.0000      -0.759160       -20.6578
   8   2.0000      -0.541893       -14.7457
   9   2.0000      -0.446107       -12.1392
  10   2.0000      -0.416258       -11.3270
  11   2.0000      -0.276392        -7.5210
  12   2.0000      -0.234675        -6.3858
  13   0.0000      -0.054506        -1.4832
  14   0.0000       0.005892         0.1603
  15   0.0000       0.071888         1.9562
  16   0.0000       0.076269         2.0754
  17   0.0000       0.082101         2.2341

MULLIKEN ATOMIC CHARGES
-----------------------
   0 O :   -0.393324
   1 Cl:    0.197946
   2 H :    0.195379
Sum of atomic charges:   -0.0000000

LOEWDIN ATOMIC CHARGES
----------------------
   0 O :    0.129584
   1 Cl:    0.621246
   2 H :   -0.750830

  Mayer bond orders larger than 0.100000
B(  0-O ,  1-Cl) :   0.8808 B(  0-O ,  2-H ) :   1.0049

Dispersion correction           -0.000182987
FINAL SINGLE POINT ENERGY      -535.956067982903

DIPOLE MOMENT
-------------
                                X             Y             Z
Electronic contribution:      1.54073      -0.32874      -0.00000
Nuclear contribution   :     -1.99575      -0.12273       0.00000
                        -----------------------------------------
Total Dipole Moment    :     -0.45502      -0.45146       0.00000
                        -----------------------------------------
Magnitude (a.u.)       :      0.64098
Magnitude (Debye)      :      1.62925

VIBRATIONAL FREQUENCIES
-----------------------

Scaling factor for frequencies =  1.000000000 (already applied!)

   0:         0.00 cm**-1
   1:         0.00 cm**-1
   2:         0.00 cm**-1
   3:         0.00 cm**-1
   4:         0.00 cm**-1
   5:         0.00 cm**-1
   6:      1119.87 cm**-1
   7:      1303.27 cm**-1
   8:      4216.69 cm**-1

IR SPECTRUM
-----------

 Mode    freq (cm**-1)   T**2         TX         TY         TZ
-------------------------------------------------------------------
   6:      1119.87   55.352217  ( -7.099461   2.224830   0.000003)
   7:      1303.27   29.173850  (  5.092593  -1.799819  -0.000002)
   8:      4216.69   89.507994  ( -7.646143  -5.571758   0.000003)

--------------------------
THERMOCHEMISTRY AT 298.15K
--------------------------

Temperature         ... 298.15 K
Pressure            ... 1.00 atm
Total Mass          ... 52.46 AMU

Throughout the following assumptions are being made:
  (1) The electronic state is orbitally nondegenerate
  (2) There are no thermally accessible electronically excited states
  (3) Hindered rotations indicated by low frequency modes are not
      treated as such but are treated as vibrations and this may
      cause some error
  (4) All equations used are the standard statistical mechanics
      equations for an ideal gas
  (5) All vibrations are strictly harmonic

freq.    1119.87  E(vib)   ...       0.01
freq.    1303.27  E(vib)   ...       0.01
freq.    4216.69  E(vib)   ...       0.00

------------
INNER ENERGY
------------

The inner energy is: U= E(el) + E(ZPE) + E(vib) + E(rot) + E(trans)
    E(el)   - is the total energy from the electronic structure calculation
              = E(kin-el) + E(nuc-el) + E(el-el) + E(nuc-nuc)
    E(ZPE)  - the the zero temperature vibrational energy from the frequency calculation
    E(vib)  - the the finite temperature correction to E(ZPE) due to population
              of excited vibrational states
    E(rot)  - is the rotational thermal energy
    E(trans)- is the translational thermal energy

Summary of contributions to the inner energy U:
Electronic energy                ...   -535.95606795 Eh
Zero point energy                ...      0.01512664 Eh       9.49 kcal/mol
Thermal vibrational correction   ...      0.00003410 Eh       0.02 kcal/mol
Thermal rotational correction    ...      0.00141627 Eh       0.89 kcal/mol
Thermal translational correction ...      0.00141627 Eh       0.89 kcal/mol
-----------------------------------------------------------------------
Total thermal energy                   -535.93807467 Eh

Summary of corrections to the electronic energy:
(perhaps to be used in another calculation)
Total thermal correction                  0.00286665 Eh       1.80 kcal/mol
Non-thermal (ZPE) correction              0.01512664 Eh       9.49 kcal/mol
-----------------------------------------------------------------------
Total correction                          0.01799328 Eh      11.29 kcal/mol

--------
ENTHALPY
--------

The enthalpy is H = U + kB*T
                kB is Boltzmann's constant
Total free energy                 ...   -535.93807467 Eh
Thermal Enthalpy correction       ...      0.00094421 Eh       0.59 kcal/mol
-----------------------------------------------------------------------
Total Enthalpy                    ...   -535.93713046 Eh

Note: Rotational entropy computed according to Herzberg
Infrared and Raman Spectra, Chapter V,1, Van Nostrand Reinhold, 1945
Point Group:  Cs, Symmetry Number:   1
Rotational constants in cm-1:    21.530011     0.624002     0.606426

Vibrational entropy computed according to the QRRHO of S. Grimme
Chem.Eur.J. 2012 18 9955

-------
ENTROPY
-------

The entropy contributions are T*S = T*(S(el)+S(vib)+S(rot)+S(trans))
     S(el)   - electronic entropy
     S(vib)  - vibrational entropy
     S(rot)  - rotational entropy
     S(trans)- translational entropy
The entropies will be listed as mutliplied by the temperature to get
units of energy

Electronic entropy                ...      0.00000000 Eh      0.00 kcal/mol
Vibrational entropy               ...      0.00004013 Eh      0.03 kcal/mol
Rotational entropy                ...      0.00852052 Eh      5.35 kcal/mol
Translational entropy             ...      0.01795758 Eh     11.27 kcal/mol
-----------------------------------------------------------------------
Final entropy term                ...      0.02651823 Eh     16.64 kcal/mol

In case the symmetry of your molecule has not been determined correctly
or in case you have a reason to use a different symmetry number we print
out the resulting rotational entropy values for sn=1,12 :
 --------------------------------------------------------
|  sn= 1 | S(rot)=       0.00852052 Eh      5.35 kcal/mol|
|  sn= 2 | S(rot)=       0.00786606 Eh      4.94 kcal/mol|
|  sn= 3 | S(rot)=       0.00748323 Eh      4.70 kcal/mol|
|  sn= 4 | S(rot)=       0.00721161 Eh      4.53 kcal/mol|
|  sn= 5 | S(rot)=       0.00700092 Eh      4.39 kcal/mol|
|  sn= 6 | S(rot)=       0.00682877 Eh      4.29 kcal/mol|
|  sn= 7 | S(rot)=       0.00668323 Eh      4.19 kcal/mol|
|  sn= 8 | S(rot)=       0.00655715 Eh      4.11 kcal/mol|
|  sn= 9 | S(rot)=       0.00644594 Eh      4.04 kcal/mol|
|  sn=10 | S(rot)=       0.00634646 Eh      3.98 kcal/mol|
|  sn=11 | S(rot)=       0.00625647 Eh      3.93 kcal/mol|
|  sn=12 | S(rot)=       0.00617432 Eh      3.87 kcal/mol|
 --------------------------------------------------------

-------------------
GIBBS FREE ENERGY
-------------------

The Gibbs free energy is G = H - T*S

Total enthalpy                    ...   -535.93713046 Eh
Total entropy correction          ...     -0.02651823 Eh    -16.64 kcal/mol
-----------------------------------------------------------------------
Final Gibbs free energy         ...   -535.96364869 Eh

For completeness - the Gibbs free energy minus the electronic energy
G-E(el)                           ...     -0.00758074 Eh     -4.76 kcal/mol

                             ****ORCA TERMINATED NORMALLY****
TOTAL RUN TIME: 0 days 0 hours 0 minutes 34 seconds 587 msec
