                         Program Version 4.2.0 -  RELEASE  -
|  1> #
|  2> # 25_NH3 scanfunc/aug-cc-pvt(+d)z
|  3> #
|  4> ! scanfunc d3bj aug-cc-pvt(+d)z def2/j opt xyzfile numfreq
|  5>
|  6> *xyz 0 1
|  7> N           -0.002380744         -0.000680215          0.281658228
|  8> H           -0.519925577         -0.785969146         -0.100203124
|  9> H           -0.419725272          0.844282023         -0.095448346
| 10> H            0.942031593         -0.057632663         -0.086006759
| 11> *
| 12>
| 13> %pal
| 14> nprocs 24
| 15> end
| 16>
| 17>
| 18>                          ****END OF INPUT****
 Total Charge           Charge          ....    0
 Multiplicity           Mult            ....    1
 Number of Electrons    NEL             ....   10
Dispersion correction           -0.000168725
FINAL SINGLE POINT ENERGY       -56.560289614889
Dispersion correction            ... done
Dispersion correction           -0.000168803
FINAL SINGLE POINT ENERGY       -56.558437576129
Dispersion correction            ... done
Dispersion correction           -0.000168898
FINAL SINGLE POINT ENERGY       -56.550868815999
Dispersion correction            ... done
FINAL SINGLE POINT ENERGY       -56.537964337588
FINAL SINGLE POINT ENERGY       -56.539101145133
Dispersion correction            ... done
Dispersion correction           -0.000169022
FINAL SINGLE POINT ENERGY       -56.538860830420
Dispersion correction            ... done
Dispersion correction           -0.000169022
FINAL SINGLE POINT ENERGY       -56.538828398800
Dispersion correction            ... done
                    ***********************HURRAY********************

CARTESIAN COORDINATES (ANGSTROEM)
---------------------------------
  N     -0.004319   -0.002034    0.484760
  H     -0.468837   -0.708675   -0.168534
  H     -0.378019    0.761998   -0.162436
  H      0.851175   -0.051289   -0.153790

 Multiplicity           Mult            ....    1
 Number of Electrons    NEL             ....   10
 Basis Dimension        Dim             ....  115

ORBITAL ENERGIES
----------------

  NO   OCC          E(Eh)            E(eV)
   0   2.0000     -14.142631      -384.8405
   1   2.0000      -0.831944       -22.6383
   2   2.0000      -0.387851       -10.5540
   3   2.0000      -0.387678       -10.5493
   4   2.0000      -0.292014        -7.9461
   5   0.0000      -0.012685        -0.3452
   6   0.0000       0.037347         1.0163
   7   0.0000       0.037983         1.0336
   8   0.0000       0.078395         2.1332
   9   0.0000       0.113410         3.0860

MULLIKEN ATOMIC CHARGES
-----------------------
   0 N :   -0.450222
   1 H :    0.152976
   2 H :    0.152668
   3 H :    0.144578
Sum of atomic charges:    0.0000000

LOEWDIN ATOMIC CHARGES
----------------------
   0 N :    1.050690
   1 H :   -0.350469
   2 H :   -0.349811
   3 H :   -0.350410

  Mayer bond orders larger than 0.100000
B(  0-N ,  1-H ) :   0.9425 B(  0-N ,  2-H ) :   0.9434 B(  0-N ,  3-H ) :   0.9394

Dispersion correction           -0.000169022
FINAL SINGLE POINT ENERGY       -56.538813035900

DIPOLE MOMENT
-------------
                                X             Y             Z
Electronic contribution:     -0.00701      -0.00210       0.68093
Nuclear contribution   :      0.01332       0.00627      -1.49552
                        -----------------------------------------
Total Dipole Moment    :      0.00631       0.00417      -0.81459
                        -----------------------------------------
Magnitude (a.u.)       :      0.81462
Magnitude (Debye)      :      2.07060

VIBRATIONAL FREQUENCIES
-----------------------

Scaling factor for frequencies =  1.000000000 (already applied!)

   0:         0.00 cm**-1
   1:         0.00 cm**-1
   2:         0.00 cm**-1
   3:         0.00 cm**-1
   4:         0.00 cm**-1
   5:         0.00 cm**-1
   6:      1545.14 cm**-1
   7:      1685.06 cm**-1
   8:      1687.29 cm**-1
   9:      2923.91 cm**-1
  10:      2932.02 cm**-1
  11:      3003.78 cm**-1

IR SPECTRUM
-----------

 Mode    freq (cm**-1)   T**2         TX         TY         TZ
-------------------------------------------------------------------
   6:      1545.14   23.042461  ( -0.161419   0.061213  -4.797151)
   7:      1685.06    4.137026  ( -0.585468   1.947877  -0.005315)
   8:      1687.29    6.060569  ( -2.397482  -0.524239  -0.194479)
   9:      2923.91    6.105185  (  2.438044   0.386447  -0.108551)
  10:      2932.02    3.257958  ( -0.459813   1.744695   0.050680)
  11:      3003.78   16.597404  ( -0.012915   0.053321  -4.073622)

--------------------------
THERMOCHEMISTRY AT 298.15K
--------------------------

Temperature         ... 298.15 K
Pressure            ... 1.00 atm
Total Mass          ... 17.03 AMU

Throughout the following assumptions are being made:
  (1) The electronic state is orbitally nondegenerate
  (2) There are no thermally accessible electronically excited states
  (3) Hindered rotations indicated by low frequency modes are not
      treated as such but are treated as vibrations and this may
      cause some error
  (4) All equations used are the standard statistical mechanics
      equations for an ideal gas
  (5) All vibrations are strictly harmonic

freq.    1545.14  E(vib)   ...       0.00
freq.    1685.06  E(vib)   ...       0.00
freq.    1687.29  E(vib)   ...       0.00
freq.    2923.91  E(vib)   ...       0.00
freq.    2932.02  E(vib)   ...       0.00
freq.    3003.78  E(vib)   ...       0.00

------------
INNER ENERGY
------------

The inner energy is: U= E(el) + E(ZPE) + E(vib) + E(rot) + E(trans)
    E(el)   - is the total energy from the electronic structure calculation
              = E(kin-el) + E(nuc-el) + E(el-el) + E(nuc-nuc)
    E(ZPE)  - the the zero temperature vibrational energy from the frequency calculation
    E(vib)  - the the finite temperature correction to E(ZPE) due to population
              of excited vibrational states
    E(rot)  - is the rotational thermal energy
    E(trans)- is the translational thermal energy

Summary of contributions to the inner energy U:
Electronic energy                ...    -56.53881307 Eh
Zero point energy                ...      0.03138675 Eh      19.70 kcal/mol
Thermal vibrational correction   ...      0.00000859 Eh       0.01 kcal/mol
Thermal rotational correction    ...      0.00141627 Eh       0.89 kcal/mol
Thermal translational correction ...      0.00141627 Eh       0.89 kcal/mol
-----------------------------------------------------------------------
Total thermal energy                    -56.50458519 Eh

Summary of corrections to the electronic energy:
(perhaps to be used in another calculation)
Total thermal correction                  0.00284114 Eh       1.78 kcal/mol
Non-thermal (ZPE) correction              0.03138675 Eh      19.70 kcal/mol
-----------------------------------------------------------------------
Total correction                          0.03422788 Eh      21.48 kcal/mol

--------
ENTHALPY
--------

The enthalpy is H = U + kB*T
                kB is Boltzmann's constant
Total free energy                 ...    -56.50458519 Eh
Thermal Enthalpy correction       ...      0.00094421 Eh       0.59 kcal/mol
-----------------------------------------------------------------------
Total Enthalpy                    ...    -56.50364098 Eh

Note: Only C1 symmetry has been detected, increase convergence thresholds
      if your molecule has a higher symmetry. Symmetry factor of 1.0 is
      used for the rotational entropy correction.

Note: Rotational entropy computed according to Herzberg
Infrared and Raman Spectra, Chapter V,1, Van Nostrand Reinhold, 1945
Point Group:  C1, Symmetry Number:   1
Rotational constants in cm-1:     7.902819     7.894890     7.696874

Vibrational entropy computed according to the QRRHO of S. Grimme
Chem.Eur.J. 2012 18 9955

-------
ENTROPY
-------

The entropy contributions are T*S = T*(S(el)+S(vib)+S(rot)+S(trans))
     S(el)   - electronic entropy
     S(vib)  - vibrational entropy
     S(rot)  - rotational entropy
     S(trans)- translational entropy
The entropies will be listed as mutliplied by the temperature to get
units of energy

Electronic entropy                ...      0.00000000 Eh      0.00 kcal/mol
Vibrational entropy               ...      0.00000969 Eh      0.01 kcal/mol
Rotational entropy                ...      0.00659601 Eh      4.14 kcal/mol
Translational entropy             ...      0.01636425 Eh     10.27 kcal/mol
-----------------------------------------------------------------------
Final entropy term                ...      0.02296995 Eh     14.41 kcal/mol

In case the symmetry of your molecule has not been determined correctly
or in case you have a reason to use a different symmetry number we print
out the resulting rotational entropy values for sn=1,12 :
 --------------------------------------------------------
|  sn= 1 | S(rot)=       0.00659601 Eh      4.14 kcal/mol|
|  sn= 2 | S(rot)=       0.00594155 Eh      3.73 kcal/mol|
|  sn= 3 | S(rot)=       0.00555872 Eh      3.49 kcal/mol|
|  sn= 4 | S(rot)=       0.00528709 Eh      3.32 kcal/mol|
|  sn= 5 | S(rot)=       0.00507641 Eh      3.19 kcal/mol|
|  sn= 6 | S(rot)=       0.00490426 Eh      3.08 kcal/mol|
|  sn= 7 | S(rot)=       0.00475871 Eh      2.99 kcal/mol|
|  sn= 8 | S(rot)=       0.00463264 Eh      2.91 kcal/mol|
|  sn= 9 | S(rot)=       0.00452143 Eh      2.84 kcal/mol|
|  sn=10 | S(rot)=       0.00442195 Eh      2.77 kcal/mol|
|  sn=11 | S(rot)=       0.00433196 Eh      2.72 kcal/mol|
|  sn=12 | S(rot)=       0.00424980 Eh      2.67 kcal/mol|
 --------------------------------------------------------

-------------------
GIBBS FREE ENERGY
-------------------

The Gibbs free energy is G = H - T*S

Total enthalpy                    ...    -56.50364098 Eh
Total entropy correction          ...     -0.02296995 Eh    -14.41 kcal/mol
-----------------------------------------------------------------------
Final Gibbs free energy         ...    -56.52661093 Eh

For completeness - the Gibbs free energy minus the electronic energy
G-E(el)                           ...      0.01220214 Eh      7.66 kcal/mol

                             ****ORCA TERMINATED NORMALLY****
TOTAL RUN TIME: 0 days 0 hours 0 minutes 34 seconds 201 msec
