                         Program Version 4.2.0 -  RELEASE  -
|  1> #
|  2> # 26_N2O scanfunc/aug-cc-pvt(+d)z
|  3> #
|  4> ! scanfunc d3bj aug-cc-pvt(+d)z def2/j opt xyzfile numfreq
|  5>
|  6> *xyz 0 1
|  7> N           -0.000000050          0.000000033         -1.122425998
|  8> N           -0.000000002          0.000000001         -0.001729371
|  9> O            0.000000052         -0.000000034          1.183155373
| 10> *
| 11>
| 12> %pal
| 13> nprocs 24
| 14> end
| 15>
| 16>
| 17>                          ****END OF INPUT****
 Total Charge           Charge          ....    0
 Multiplicity           Mult            ....    1
 Number of Electrons    NEL             ....   22
Dispersion correction           -0.000214831
FINAL SINGLE POINT ENERGY      -184.678843142200
Dispersion correction            ... done
Dispersion correction           -0.000214828
FINAL SINGLE POINT ENERGY      -184.678698842946
Dispersion correction            ... done
Dispersion correction           -0.000214831
FINAL SINGLE POINT ENERGY      -184.678334590335
Dispersion correction            ... done
Dispersion correction           -0.000214831
FINAL SINGLE POINT ENERGY      -184.678332287784
Dispersion correction            ... done
                    ***********************HURRAY********************

CARTESIAN COORDINATES (ANGSTROEM)
---------------------------------
  N     -0.000000    0.000000   -1.127700
  N     -0.000000   -0.000000    0.008837
  O      0.000000   -0.000000    1.177863

 Multiplicity           Mult            ....    1
 Number of Electrons    NEL             ....   22
 Basis Dimension        Dim             ....  138

ORBITAL ENERGIES
----------------

  NO   OCC          E(Eh)            E(eV)
   0   2.0000     -19.092067      -519.5216
   1   2.0000     -14.369474      -391.0133
   2   2.0000     -14.231601      -387.2616
   3   2.0000      -1.225993       -33.3610
   4   2.0000      -1.051065       -28.6009
   5   2.0000      -0.579894       -15.7797
   6   2.0000      -0.535059       -14.5597
   7   2.0000      -0.535059       -14.5597
   8   2.0000      -0.444039       -12.0829
   9   2.0000      -0.318391        -8.6639
  10   2.0000      -0.318391        -8.6639
  11   0.0000      -0.047952        -1.3048
  12   0.0000      -0.047952        -1.3048
  13   0.0000       0.010466         0.2848
  14   0.0000       0.069519         1.8917
  15   0.0000       0.086517         2.3542

MULLIKEN ATOMIC CHARGES
-----------------------
   0 N :   -0.413366
   1 N :    0.802656
   2 O :   -0.389290
Sum of atomic charges:   -0.0000000

LOEWDIN ATOMIC CHARGES
----------------------
   0 N :    0.197034
   1 N :   -0.507991
   2 O :    0.310957

  Mayer bond orders larger than 0.100000
B(  0-N ,  1-N ) :   1.8027 B(  0-N ,  2-O ) :   0.4948 B(  1-N ,  2-O ) :   1.4734

Dispersion correction           -0.000214831
FINAL SINGLE POINT ENERGY      -184.678332107813

DIPOLE MOMENT
-------------
                                X             Y             Z
Electronic contribution:     -0.00000      -0.00000       0.07439
Nuclear contribution   :      0.00000      -0.00000       0.00940
                        -----------------------------------------
Total Dipole Moment    :     -0.00000      -0.00000       0.08379
                        -----------------------------------------
Magnitude (a.u.)       :      0.08379
Magnitude (Debye)      :      0.21298

VIBRATIONAL FREQUENCIES
-----------------------

Scaling factor for frequencies =  1.000000000 (already applied!)

   0:         0.00 cm**-1
   1:         0.00 cm**-1
   2:         0.00 cm**-1
   3:         0.00 cm**-1
   4:         0.00 cm**-1
   5:       731.05 cm**-1
   6:       731.06 cm**-1
   7:      1279.40 cm**-1
   8:      2112.58 cm**-1

IR SPECTRUM
-----------

 Mode    freq (cm**-1)   T**2         TX         TY         TZ
-------------------------------------------------------------------
   5:       731.05    3.986152  ( -1.407783  -1.415733  -0.000001)
   6:       731.06    3.986170  ( -1.415736   1.407786  -0.000028)
   7:      1279.40   36.738856  (  0.000001  -0.000001   6.061259)
   8:      2112.58  381.076989  (  0.000001  -0.000001  19.521193)

--------------------------
THERMOCHEMISTRY AT 298.15K
--------------------------

Temperature         ... 298.15 K
Pressure            ... 1.00 atm
Total Mass          ... 44.01 AMU
The molecule is recognized as being linear

Throughout the following assumptions are being made:
  (1) The electronic state is orbitally nondegenerate
  (2) There are no thermally accessible electronically excited states
  (3) Hindered rotations indicated by low frequency modes are not
      treated as such but are treated as vibrations and this may
      cause some error
  (4) All equations used are the standard statistical mechanics
      equations for an ideal gas
  (5) All vibrations are strictly harmonic

freq.     731.05  E(vib)   ...       0.06
freq.     731.06  E(vib)   ...       0.06
freq.    1279.40  E(vib)   ...       0.01
freq.    2112.58  E(vib)   ...       0.00

------------
INNER ENERGY
------------

The inner energy is: U= E(el) + E(ZPE) + E(vib) + E(rot) + E(trans)
    E(el)   - is the total energy from the electronic structure calculation
              = E(kin-el) + E(nuc-el) + E(el-el) + E(nuc-nuc)
    E(ZPE)  - the the zero temperature vibrational energy from the frequency calculation
    E(vib)  - the the finite temperature correction to E(ZPE) due to population
              of excited vibrational states
    E(rot)  - is the rotational thermal energy
    E(trans)- is the translational thermal energy

Summary of contributions to the inner energy U:
Electronic energy                ...   -184.67833213 Eh
Zero point energy                ...      0.01105842 Eh       6.94 kcal/mol
Thermal vibrational correction   ...      0.00021412 Eh       0.13 kcal/mol
Thermal rotational correction    ...      0.00094418 Eh       0.59 kcal/mol
Thermal translational correction ...      0.00141627 Eh       0.89 kcal/mol
-----------------------------------------------------------------------
Total thermal energy                   -184.66469914 Eh

Summary of corrections to the electronic energy:
(perhaps to be used in another calculation)
Total thermal correction                  0.00257457 Eh       1.62 kcal/mol
Non-thermal (ZPE) correction              0.01105842 Eh       6.94 kcal/mol
-----------------------------------------------------------------------
Total correction                          0.01363299 Eh       8.55 kcal/mol

--------
ENTHALPY
--------

The enthalpy is H = U + kB*T
                kB is Boltzmann's constant
Total free energy                 ...   -184.66469914 Eh
Thermal Enthalpy correction       ...      0.00094421 Eh       0.59 kcal/mol
-----------------------------------------------------------------------
Total Enthalpy                    ...   -184.66375493 Eh

Note: Rotational entropy computed according to Herzberg
Infrared and Raman Spectra, Chapter V,1, Van Nostrand Reinhold, 1945
Point Group:  Cinfv, Symmetry Number:   1
Rotational constants in cm-1:     0.000000     0.423755     0.423755

Vibrational entropy computed according to the QRRHO of S. Grimme
Chem.Eur.J. 2012 18 9955

-------
ENTROPY
-------

The entropy contributions are T*S = T*(S(el)+S(vib)+S(rot)+S(trans))
     S(el)   - electronic entropy
     S(vib)  - vibrational entropy
     S(rot)  - rotational entropy
     S(trans)- translational entropy
The entropies will be listed as mutliplied by the temperature to get
units of energy

Electronic entropy                ...      0.00000000 Eh      0.00 kcal/mol
Vibrational entropy               ...      0.00027262 Eh      0.17 kcal/mol
Rotational entropy                ...      0.00679094 Eh      4.26 kcal/mol
Translational entropy             ...      0.01770893 Eh     11.11 kcal/mol
-----------------------------------------------------------------------
Final entropy term                ...      0.02477248 Eh     15.54 kcal/mol

In case the symmetry of your molecule has not been determined correctly
or in case you have a reason to use a different symmetry number we print
out the resulting rotational entropy values for sn=1,12 :
 --------------------------------------------------------
|  sn= 1 | S(rot)=      -0.00724670 Eh     -4.55 kcal/mol|
|  sn= 2 | S(rot)=      -0.00790116 Eh     -4.96 kcal/mol|
|  sn= 3 | S(rot)=      -0.00828399 Eh     -5.20 kcal/mol|
|  sn= 4 | S(rot)=      -0.00855561 Eh     -5.37 kcal/mol|
|  sn= 5 | S(rot)=      -0.00876630 Eh     -5.50 kcal/mol|
|  sn= 6 | S(rot)=      -0.00893845 Eh     -5.61 kcal/mol|
|  sn= 7 | S(rot)=      -0.00908399 Eh     -5.70 kcal/mol|
|  sn= 8 | S(rot)=      -0.00921007 Eh     -5.78 kcal/mol|
|  sn= 9 | S(rot)=      -0.00932128 Eh     -5.85 kcal/mol|
|  sn=10 | S(rot)=      -0.00942076 Eh     -5.91 kcal/mol|
|  sn=11 | S(rot)=      -0.00951075 Eh     -5.97 kcal/mol|
|  sn=12 | S(rot)=      -0.00959290 Eh     -6.02 kcal/mol|
 --------------------------------------------------------

-------------------
GIBBS FREE ENERGY
-------------------

The Gibbs free energy is G = H - T*S

Total enthalpy                    ...   -184.66375493 Eh
Total entropy correction          ...     -0.02477248 Eh    -15.54 kcal/mol
-----------------------------------------------------------------------
Final Gibbs free energy         ...   -184.68852741 Eh

For completeness - the Gibbs free energy minus the electronic energy
G-E(el)                           ...     -0.01019528 Eh     -6.40 kcal/mol

                             ****ORCA TERMINATED NORMALLY****
TOTAL RUN TIME: 0 days 0 hours 0 minutes 28 seconds 767 msec
