                         Program Version 4.2.0 -  RELEASE  -
|  1> #
|  2> # 27_OCS scanfunc/aug-cc-pvt(+d)z
|  3> #
|  4> ! scanfunc d3bj aug-cc-pvt(+d)z def2/j opt xyzfile numfreq
|  5>
|  6> *xyz 0 1
|  7> O            0.000000135         -0.000000067         -1.270762684
|  8> C            0.000000037         -0.000000044         -0.116817432
|  9> S           -0.000000173          0.000000112          1.446580115
| 10> *
| 11>
| 12> %pal
| 13> nprocs 24
| 14> end
| 15>
| 16>
| 17>                          ****END OF INPUT****
 Total Charge           Charge          ....    0
 Multiplicity           Mult            ....    1
 Number of Electrons    NEL             ....   30
Dispersion correction           -0.000312862
FINAL SINGLE POINT ENERGY      -511.623243333867
Dispersion correction            ... done
Dispersion correction           -0.000312791
FINAL SINGLE POINT ENERGY      -511.622795877358
Dispersion correction            ... done
Dispersion correction           -0.000312626
FINAL SINGLE POINT ENERGY      -511.621810414055
Dispersion correction            ... done
Dispersion correction           -0.000312597
FINAL SINGLE POINT ENERGY      -511.621729669395
Dispersion correction            ... done
Dispersion correction           -0.000312595
FINAL SINGLE POINT ENERGY      -511.621745485609
Dispersion correction            ... done
                    ***********************HURRAY********************

CARTESIAN COORDINATES (ANGSTROEM)
---------------------------------
  O      0.000000   -0.000000   -1.276476
  C      0.000000   -0.000000   -0.129870
  S     -0.000000    0.000000    1.465346

 Multiplicity           Mult            ....    1
 Number of Electrons    NEL             ....   30
 Basis Dimension        Dim             ....  147

ORBITAL ENERGIES
----------------

  NO   OCC          E(Eh)            E(eV)
   0   2.0000     -88.571663     -2410.1575
   1   2.0000     -19.066057      -518.8138
   2   2.0000     -10.187099      -277.2050
   3   2.0000      -7.923106      -215.5987
   4   2.0000      -5.867201      -159.6547
   5   2.0000      -5.856262      -159.3570
   6   2.0000      -5.856262      -159.3570
   7   2.0000      -1.125128       -30.6163
   8   2.0000      -0.780476       -21.2378
   9   2.0000      -0.518736       -14.1155
  10   2.0000      -0.452181       -12.3045
  11   2.0000      -0.452181       -12.3045
  12   2.0000      -0.448092       -12.1932
  13   2.0000      -0.283570        -7.7163
  14   2.0000      -0.283570        -7.7163
  15   0.0000      -0.064150        -1.7456
  16   0.0000      -0.064150        -1.7456
  17   0.0000      -0.002517        -0.0685
  18   0.0000       0.025750         0.7007
  19   0.0000       0.045879         1.2484

MULLIKEN ATOMIC CHARGES
-----------------------
   0 O :   -0.154009
   1 C :   -0.004516
   2 S :    0.158526
Sum of atomic charges:   -0.0000000

LOEWDIN ATOMIC CHARGES
----------------------
   0 O :    0.315086
   1 C :   -1.124762
   2 S :    0.809677

  Mayer bond orders larger than 0.100000
B(  0-O ,  1-C ) :   2.1411 B(  0-O ,  2-S ) :   0.2101 B(  1-C ,  2-S ) :   1.6858

Dispersion correction           -0.000312596
FINAL SINGLE POINT ENERGY      -511.621751703422

DIPOLE MOMENT
-------------
                                X             Y             Z
Electronic contribution:     -0.00000       0.00000       0.29803
Nuclear contribution   :      0.00000      -0.00000      -0.05541
                        -----------------------------------------
Total Dipole Moment    :     -0.00000       0.00000       0.24262
                        -----------------------------------------
Magnitude (a.u.)       :      0.24262
Magnitude (Debye)      :      0.61670

VIBRATIONAL FREQUENCIES
-----------------------

Scaling factor for frequencies =  1.000000000 (already applied!)

   0:         0.00 cm**-1
   1:         0.00 cm**-1
   2:         0.00 cm**-1
   3:         0.00 cm**-1
   4:         0.00 cm**-1
   5:         0.00 cm**-1
   6:       648.88 cm**-1
   7:       755.77 cm**-1
   8:      2166.60 cm**-1

IR SPECTRUM
-----------

 Mode    freq (cm**-1)   T**2         TX         TY         TZ
-------------------------------------------------------------------
   6:       648.88    1.077606  ( -0.814698   0.643330   0.000008)
   7:       755.77   32.525257  (  0.000001  -0.000001   5.703092)
   8:      2166.60  626.118391  ( -0.000003   0.000002  25.022358)

--------------------------
THERMOCHEMISTRY AT 298.15K
--------------------------

Temperature         ... 298.15 K
Pressure            ... 1.00 atm
Total Mass          ... 60.07 AMU
The molecule is recognized as being linear

Throughout the following assumptions are being made:
  (1) The electronic state is orbitally nondegenerate
  (2) There are no thermally accessible electronically excited states
  (3) Hindered rotations indicated by low frequency modes are not
      treated as such but are treated as vibrations and this may
      cause some error
  (4) All equations used are the standard statistical mechanics
      equations for an ideal gas
  (5) All vibrations are strictly harmonic

freq.     648.88  E(vib)   ...       0.08
freq.     755.77  E(vib)   ...       0.06
freq.    2166.60  E(vib)   ...       0.00

------------
INNER ENERGY
------------

The inner energy is: U= E(el) + E(ZPE) + E(vib) + E(rot) + E(trans)
    E(el)   - is the total energy from the electronic structure calculation
              = E(kin-el) + E(nuc-el) + E(el-el) + E(nuc-nuc)
    E(ZPE)  - the the zero temperature vibrational energy from the frequency calculation
    E(vib)  - the the finite temperature correction to E(ZPE) due to population
              of excited vibrational states
    E(rot)  - is the rotational thermal energy
    E(trans)- is the translational thermal energy

Summary of contributions to the inner energy U:
Electronic energy                ...   -511.62175176 Eh
Zero point energy                ...      0.00813591 Eh       5.11 kcal/mol
Thermal vibrational correction   ...      0.00022745 Eh       0.14 kcal/mol
Thermal rotational correction    ...      0.00094418 Eh       0.59 kcal/mol
Thermal translational correction ...      0.00141627 Eh       0.89 kcal/mol
-----------------------------------------------------------------------
Total thermal energy                   -511.61102795 Eh

Summary of corrections to the electronic energy:
(perhaps to be used in another calculation)
Total thermal correction                  0.00258790 Eh       1.62 kcal/mol
Non-thermal (ZPE) correction              0.00813591 Eh       5.11 kcal/mol
-----------------------------------------------------------------------
Total correction                          0.01072381 Eh       6.73 kcal/mol

--------
ENTHALPY
--------

The enthalpy is H = U + kB*T
                kB is Boltzmann's constant
Total free energy                 ...   -511.61102795 Eh
Thermal Enthalpy correction       ...      0.00094421 Eh       0.59 kcal/mol
-----------------------------------------------------------------------
Total Enthalpy                    ...   -511.61008374 Eh

Note: Rotational entropy computed according to Herzberg
Infrared and Raman Spectra, Chapter V,1, Van Nostrand Reinhold, 1945
Point Group:  Cinfv, Symmetry Number:   1
Rotational constants in cm-1:     0.000000     0.199005     0.199005

Vibrational entropy computed according to the QRRHO of S. Grimme
Chem.Eur.J. 2012 18 9955

-------
ENTROPY
-------

The entropy contributions are T*S = T*(S(el)+S(vib)+S(rot)+S(trans))
     S(el)   - electronic entropy
     S(vib)  - vibrational entropy
     S(rot)  - rotational entropy
     S(trans)- translational entropy
The entropies will be listed as mutliplied by the temperature to get
units of energy

Electronic entropy                ...      0.00000000 Eh      0.00 kcal/mol
Vibrational entropy               ...      0.00029482 Eh      0.19 kcal/mol
Rotational entropy                ...      0.00750457 Eh      4.71 kcal/mol
Translational entropy             ...      0.01814943 Eh     11.39 kcal/mol
-----------------------------------------------------------------------
Final entropy term                ...      0.02594882 Eh     16.28 kcal/mol

In case the symmetry of your molecule has not been determined correctly
or in case you have a reason to use a different symmetry number we print
out the resulting rotational entropy values for sn=1,12 :
 --------------------------------------------------------
|  sn= 1 | S(rot)=      -0.00554356 Eh     -3.48 kcal/mol|
|  sn= 2 | S(rot)=      -0.00619802 Eh     -3.89 kcal/mol|
|  sn= 3 | S(rot)=      -0.00658085 Eh     -4.13 kcal/mol|
|  sn= 4 | S(rot)=      -0.00685248 Eh     -4.30 kcal/mol|
|  sn= 5 | S(rot)=      -0.00706317 Eh     -4.43 kcal/mol|
|  sn= 6 | S(rot)=      -0.00723531 Eh     -4.54 kcal/mol|
|  sn= 7 | S(rot)=      -0.00738086 Eh     -4.63 kcal/mol|
|  sn= 8 | S(rot)=      -0.00750693 Eh     -4.71 kcal/mol|
|  sn= 9 | S(rot)=      -0.00761814 Eh     -4.78 kcal/mol|
|  sn=10 | S(rot)=      -0.00771762 Eh     -4.84 kcal/mol|
|  sn=11 | S(rot)=      -0.00780761 Eh     -4.90 kcal/mol|
|  sn=12 | S(rot)=      -0.00788977 Eh     -4.95 kcal/mol|
 --------------------------------------------------------

-------------------
GIBBS FREE ENERGY
-------------------

The Gibbs free energy is G = H - T*S

Total enthalpy                    ...   -511.61008374 Eh
Total entropy correction          ...     -0.02594882 Eh    -16.28 kcal/mol
-----------------------------------------------------------------------
Final Gibbs free energy         ...   -511.63603256 Eh

For completeness - the Gibbs free energy minus the electronic energy
G-E(el)                           ...     -0.01428080 Eh     -8.96 kcal/mol

                             ****ORCA TERMINATED NORMALLY****
TOTAL RUN TIME: 0 days 0 hours 0 minutes 33 seconds 781 msec
