                         Program Version 4.2.0 -  RELEASE  -
|  1> #
|  2> # 28_PH3 scanfunc/aug-cc-pvt(+d)z
|  3> #
|  4> ! scanfunc d3bj aug-cc-pvt(+d)z def2/j opt xyzfile numfreq
|  5>
|  6> *xyz 0 1
|  7> P           -0.005097099         -0.001153152          0.571181006
|  8> H           -0.658920833         -0.993994611         -0.198293924
|  9> H           -0.529115053          1.069739515         -0.192973374
| 10> H            1.193132979         -0.074591751         -0.179913708
| 11> *
| 12>
| 13> %pal
| 14> nprocs 24
| 15> end
| 16>
| 17>
| 18>                          ****END OF INPUT****
 Total Charge           Charge          ....    0
 Multiplicity           Mult            ....    1
 Number of Electrons    NEL             ....   18
Dispersion correction           -0.000279335
FINAL SINGLE POINT ENERGY      -343.196249641725
Dispersion correction            ... done
Dispersion correction           -0.000279577
FINAL SINGLE POINT ENERGY      -343.195379231101
Dispersion correction            ... done
Dispersion correction           -0.000279654
FINAL SINGLE POINT ENERGY      -343.193381262657
Dispersion correction            ... done
FINAL SINGLE POINT ENERGY      -343.192614362122
FINAL SINGLE POINT ENERGY      -343.191863047977
FINAL SINGLE POINT ENERGY      -343.190598122960
FINAL SINGLE POINT ENERGY      -343.188502597875
FINAL SINGLE POINT ENERGY      -343.187510434069
FINAL SINGLE POINT ENERGY      -343.188180522250
FINAL SINGLE POINT ENERGY      -343.189213121352
Dispersion correction            ... done
Dispersion correction           -0.000279899
FINAL SINGLE POINT ENERGY      -343.189566469840
Dispersion correction            ... done
Dispersion correction           -0.000279898
FINAL SINGLE POINT ENERGY      -343.189568271881
Dispersion correction            ... done
                    ***********************HURRAY********************

CARTESIAN COORDINATES (ANGSTROEM)
---------------------------------
  P     -0.004248   -0.001140    0.700861
  H     -0.611516   -0.920743   -0.244404
  H     -0.493835    0.992775   -0.234943
  H      1.109600   -0.070893   -0.221515

 Multiplicity           Mult            ....    1
 Number of Electrons    NEL             ....   18
 Basis Dimension        Dim             ....  124

ORBITAL ENERGIES
----------------

  NO   OCC          E(Eh)            E(eV)
   0   2.0000     -76.688303     -2086.7948
   1   2.0000      -6.510122      -177.1494
   2   2.0000      -4.644719      -126.3892
   3   2.0000      -4.644604      -126.3861
   4   2.0000      -4.639854      -126.2568
   5   2.0000      -0.607589       -16.5333
   6   2.0000      -0.339401        -9.2356
   7   2.0000      -0.337430        -9.1819
   8   2.0000      -0.281714        -7.6658
   9   0.0000      -0.009536        -0.2595
  10   0.0000      -0.008973        -0.2442
  11   0.0000       0.002097         0.0571
  12   0.0000       0.049275         1.3408
  13   0.0000       0.049812         1.3555

MULLIKEN ATOMIC CHARGES
-----------------------
   0 P :   -0.051520
   1 H :   -0.001388
   2 H :    0.031296
   3 H :    0.021612
Sum of atomic charges:   -0.0000000

LOEWDIN ATOMIC CHARGES
----------------------
   0 P :    1.319484
   1 H :   -0.438600
   2 H :   -0.438756
   3 H :   -0.442128

  Mayer bond orders larger than 0.100000
B(  0-P ,  1-H ) :   0.9738 B(  0-P ,  2-H ) :   0.9719 B(  0-P ,  3-H ) :   0.9748

Dispersion correction           -0.000279898
FINAL SINGLE POINT ENERGY      -343.189548590682

DIPOLE MOMENT
-------------
                                X             Y             Z
Electronic contribution:     -0.00350       0.00284       2.30712
Nuclear contribution   :      0.01498       0.00402      -2.47045
                        -----------------------------------------
Total Dipole Moment    :      0.01148       0.00686      -0.16333
                        -----------------------------------------
Magnitude (a.u.)       :      0.16388
Magnitude (Debye)      :      0.41654

VIBRATIONAL FREQUENCIES
-----------------------

Scaling factor for frequencies =  1.000000000 (already applied!)

   0:         0.00 cm**-1
   1:         0.00 cm**-1
   2:         0.00 cm**-1
   3:         0.00 cm**-1
   4:         0.00 cm**-1
   5:         0.00 cm**-1
   6:      1081.32 cm**-1
   7:      1148.44 cm**-1
   8:      1156.38 cm**-1
   9:      2205.72 cm**-1
  10:      2220.84 cm**-1
  11:      2250.76 cm**-1

IR SPECTRUM
-----------

 Mode    freq (cm**-1)   T**2         TX         TY         TZ
-------------------------------------------------------------------
   6:      1081.32   16.491091  ( -0.003546   0.076483  -4.060201)
   7:      1148.44    7.463664  ( -2.535234   0.988106   0.244741)
   8:      1156.38    8.611080  (  1.147640   2.691664  -0.221236)
   9:      2205.72   54.880804  (  1.695307   7.174299   0.732239)
  10:      2220.84   57.422825  (  7.084761  -2.161962   1.598406)
  11:      2250.76   32.027827  (  2.799078   0.482954  -4.894869)

--------------------------
THERMOCHEMISTRY AT 298.15K
--------------------------

Temperature         ... 298.15 K
Pressure            ... 1.00 atm
Total Mass          ... 34.00 AMU

Throughout the following assumptions are being made:
  (1) The electronic state is orbitally nondegenerate
  (2) There are no thermally accessible electronically excited states
  (3) Hindered rotations indicated by low frequency modes are not
      treated as such but are treated as vibrations and this may
      cause some error
  (4) All equations used are the standard statistical mechanics
      equations for an ideal gas
  (5) All vibrations are strictly harmonic

freq.    1081.32  E(vib)   ...       0.02
freq.    1148.44  E(vib)   ...       0.01
freq.    1156.38  E(vib)   ...       0.01
freq.    2205.72  E(vib)   ...       0.00
freq.    2220.84  E(vib)   ...       0.00
freq.    2250.76  E(vib)   ...       0.00

------------
INNER ENERGY
------------

The inner energy is: U= E(el) + E(ZPE) + E(vib) + E(rot) + E(trans)
    E(el)   - is the total energy from the electronic structure calculation
              = E(kin-el) + E(nuc-el) + E(el-el) + E(nuc-nuc)
    E(ZPE)  - the the zero temperature vibrational energy from the frequency calculation
    E(vib)  - the the finite temperature correction to E(ZPE) due to population
              of excited vibrational states
    E(rot)  - is the rotational thermal energy
    E(trans)- is the translational thermal energy

Summary of contributions to the inner energy U:
Electronic energy                ...   -343.18954857 Eh
Zero point energy                ...      0.02292624 Eh      14.39 kcal/mol
Thermal vibrational correction   ...      0.00006804 Eh       0.04 kcal/mol
Thermal rotational correction    ...      0.00141627 Eh       0.89 kcal/mol
Thermal translational correction ...      0.00141627 Eh       0.89 kcal/mol
-----------------------------------------------------------------------
Total thermal energy                   -343.16372174 Eh

Summary of corrections to the electronic energy:
(perhaps to be used in another calculation)
Total thermal correction                  0.00290058 Eh       1.82 kcal/mol
Non-thermal (ZPE) correction              0.02292624 Eh      14.39 kcal/mol
-----------------------------------------------------------------------
Total correction                          0.02582682 Eh      16.21 kcal/mol

--------
ENTHALPY
--------

The enthalpy is H = U + kB*T
                kB is Boltzmann's constant
Total free energy                 ...   -343.16372174 Eh
Thermal Enthalpy correction       ...      0.00094421 Eh       0.59 kcal/mol
-----------------------------------------------------------------------
Total Enthalpy                    ...   -343.16277754 Eh

Note: Only C1 symmetry has been detected, increase convergence thresholds
      if your molecule has a higher symmetry. Symmetry factor of 1.0 is
      used for the rotational entropy correction.

Note: Rotational entropy computed according to Herzberg
Infrared and Raman Spectra, Chapter V,1, Van Nostrand Reinhold, 1945
Point Group:  C1, Symmetry Number:   1
Rotational constants in cm-1:     4.535378     3.960311     3.945443

Vibrational entropy computed according to the QRRHO of S. Grimme
Chem.Eur.J. 2012 18 9955

-------
ENTROPY
-------

The entropy contributions are T*S = T*(S(el)+S(vib)+S(rot)+S(trans))
     S(el)   - electronic entropy
     S(vib)  - vibrational entropy
     S(rot)  - rotational entropy
     S(trans)- translational entropy
The entropies will be listed as mutliplied by the temperature to get
units of energy

Electronic entropy                ...      0.00000000 Eh      0.00 kcal/mol
Vibrational entropy               ...      0.00008054 Eh      0.05 kcal/mol
Rotational entropy                ...      0.00749933 Eh      4.71 kcal/mol
Translational entropy             ...      0.01734327 Eh     10.88 kcal/mol
-----------------------------------------------------------------------
Final entropy term                ...      0.02492314 Eh     15.64 kcal/mol

In case the symmetry of your molecule has not been determined correctly
or in case you have a reason to use a different symmetry number we print
out the resulting rotational entropy values for sn=1,12 :
 --------------------------------------------------------
|  sn= 1 | S(rot)=       0.00749933 Eh      4.71 kcal/mol|
|  sn= 2 | S(rot)=       0.00684487 Eh      4.30 kcal/mol|
|  sn= 3 | S(rot)=       0.00646204 Eh      4.05 kcal/mol|
|  sn= 4 | S(rot)=       0.00619042 Eh      3.88 kcal/mol|
|  sn= 5 | S(rot)=       0.00597973 Eh      3.75 kcal/mol|
|  sn= 6 | S(rot)=       0.00580759 Eh      3.64 kcal/mol|
|  sn= 7 | S(rot)=       0.00566204 Eh      3.55 kcal/mol|
|  sn= 8 | S(rot)=       0.00553596 Eh      3.47 kcal/mol|
|  sn= 9 | S(rot)=       0.00542475 Eh      3.40 kcal/mol|
|  sn=10 | S(rot)=       0.00532527 Eh      3.34 kcal/mol|
|  sn=11 | S(rot)=       0.00523528 Eh      3.29 kcal/mol|
|  sn=12 | S(rot)=       0.00515313 Eh      3.23 kcal/mol|
 --------------------------------------------------------

-------------------
GIBBS FREE ENERGY
-------------------

The Gibbs free energy is G = H - T*S

Total enthalpy                    ...   -343.16277754 Eh
Total entropy correction          ...     -0.02492314 Eh    -15.64 kcal/mol
-----------------------------------------------------------------------
Final Gibbs free energy         ...   -343.18770068 Eh

For completeness - the Gibbs free energy minus the electronic energy
G-E(el)                           ...      0.00184789 Eh      1.16 kcal/mol

                             ****ORCA TERMINATED NORMALLY****
TOTAL RUN TIME: 0 days 0 hours 0 minutes 51 seconds 974 msec
