                         Program Version 4.2.0 -  RELEASE  -
|  1> #
|  2> # 29_SiO scanfunc/aug-cc-pvt(+d)z
|  3> #
|  4> ! scanfunc d3bj aug-cc-pvt(+d)z def2/j opt xyzfile numfreq
|  5>
|  6> *xyz 0 1
|  7> Si           0.000000077         -0.000000063         -0.754567114
|  8> O           -0.000000077          0.000000063          0.754567114
|  9> *
| 10>
| 11> %pal
| 12> nprocs 24
| 13> end
| 14>
| 15>
| 16>                          ****END OF INPUT****
 Total Charge           Charge          ....    0
 Multiplicity           Mult            ....    1
 Number of Electrons    NEL             ....   22
Dispersion correction           -0.000117049
FINAL SINGLE POINT ENERGY      -364.758428441120
Dispersion correction            ... done
Dispersion correction           -0.000117053
FINAL SINGLE POINT ENERGY      -364.758292462585
Dispersion correction            ... done
Dispersion correction           -0.000117059
FINAL SINGLE POINT ENERGY      -364.757781471611
Dispersion correction            ... done
Dispersion correction           -0.000117058
FINAL SINGLE POINT ENERGY      -364.757826204996
Dispersion correction            ... done
                    ***********************HURRAY********************

CARTESIAN COORDINATES (ANGSTROEM)
---------------------------------
  Si     0.000000   -0.000000   -0.744732
  O     -0.000000    0.000000    0.744732

 Multiplicity           Mult            ....    1
 Number of Electrons    NEL             ....   22
 Basis Dimension        Dim             ....  101

ORBITAL ENERGIES
----------------

  NO   OCC          E(Eh)            E(eV)
   0   2.0000     -65.758540     -1789.3809
   1   2.0000     -18.959675      -515.9190
   2   2.0000      -5.263345      -143.2229
   3   2.0000      -3.599074       -97.9358
   4   2.0000      -3.599074       -97.9358
   5   2.0000      -3.588460       -97.6470
   6   2.0000      -0.920512       -25.0484
   7   2.0000      -0.403155       -10.9704
   8   2.0000      -0.313340        -8.5264
   9   2.0000      -0.313340        -8.5264
  10   2.0000      -0.281952        -7.6723
  11   0.0000      -0.099809        -2.7159
  12   0.0000      -0.099809        -2.7159
  13   0.0000       0.006365         0.1732
  14   0.0000       0.054886         1.4935
  15   0.0000       0.054886         1.4935

MULLIKEN ATOMIC CHARGES
-----------------------
   0 Si:    0.638197
   1 O :   -0.638197
Sum of atomic charges:   -0.0000000

LOEWDIN ATOMIC CHARGES
----------------------
   0 Si:    0.465834
   1 O :   -0.465834

  Mayer bond orders larger than 0.100000
B(  0-Si,  1-O ) :   1.9469

Dispersion correction           -0.000117058
FINAL SINGLE POINT ENERGY      -364.757824612546

DIPOLE MOMENT
-------------
                                X             Y             Z
Electronic contribution:      0.00000      -0.00000      -1.20624
Nuclear contribution   :     -0.00000       0.00000       0.04482
                        -----------------------------------------
Total Dipole Moment    :      0.00000      -0.00000      -1.16141
                        -----------------------------------------
Magnitude (a.u.)       :      1.16141
Magnitude (Debye)      :      2.95208

VIBRATIONAL FREQUENCIES
-----------------------

Scaling factor for frequencies =  1.000000000 (already applied!)

   0:         0.00 cm**-1
   1:         0.00 cm**-1
   2:         0.00 cm**-1
   3:         0.00 cm**-1
   4:         0.00 cm**-1
   5:      1354.90 cm**-1

IR SPECTRUM
-----------

 Mode    freq (cm**-1)   T**2         TX         TY         TZ
-------------------------------------------------------------------
   5:      1354.90   45.900411  ( -0.000001   0.000003   6.774984)

--------------------------
THERMOCHEMISTRY AT 298.15K
--------------------------

Temperature         ... 298.15 K
Pressure            ... 1.00 atm
Total Mass          ... 44.09 AMU
The molecule is recognized as being linear

Throughout the following assumptions are being made:
  (1) The electronic state is orbitally nondegenerate
  (2) There are no thermally accessible electronically excited states
  (3) Hindered rotations indicated by low frequency modes are not
      treated as such but are treated as vibrations and this may
      cause some error
  (4) All equations used are the standard statistical mechanics
      equations for an ideal gas
  (5) All vibrations are strictly harmonic

freq.    1354.90  E(vib)   ...       0.01

------------
INNER ENERGY
------------

The inner energy is: U= E(el) + E(ZPE) + E(vib) + E(rot) + E(trans)
    E(el)   - is the total energy from the electronic structure calculation
              = E(kin-el) + E(nuc-el) + E(el-el) + E(nuc-nuc)
    E(ZPE)  - the the zero temperature vibrational energy from the frequency calculation
    E(vib)  - the the finite temperature correction to E(ZPE) due to population
              of excited vibrational states
    E(rot)  - is the rotational thermal energy
    E(trans)- is the translational thermal energy

Summary of contributions to the inner energy U:
Electronic energy                ...   -364.75782465 Eh
Zero point energy                ...      0.00308669 Eh       1.94 kcal/mol
Thermal vibrational correction   ...      0.00000895 Eh       0.01 kcal/mol
Thermal rotational correction    ...      0.00094418 Eh       0.59 kcal/mol
Thermal translational correction ...      0.00141627 Eh       0.89 kcal/mol
-----------------------------------------------------------------------
Total thermal energy                   -364.75236856 Eh

Summary of corrections to the electronic energy:
(perhaps to be used in another calculation)
Total thermal correction                  0.00236940 Eh       1.49 kcal/mol
Non-thermal (ZPE) correction              0.00308669 Eh       1.94 kcal/mol
-----------------------------------------------------------------------
Total correction                          0.00545609 Eh       3.42 kcal/mol

--------
ENTHALPY
--------

The enthalpy is H = U + kB*T
                kB is Boltzmann's constant
Total free energy                 ...   -364.75236856 Eh
Thermal Enthalpy correction       ...      0.00094421 Eh       0.59 kcal/mol
-----------------------------------------------------------------------
Total Enthalpy                    ...   -364.75142435 Eh

Note: Rotational entropy computed according to Herzberg
Infrared and Raman Spectra, Chapter V,1, Van Nostrand Reinhold, 1945
Point Group:  Cinfv, Symmetry Number:   1
Rotational constants in cm-1:     0.000000     0.745496     0.745496

Vibrational entropy computed according to the QRRHO of S. Grimme
Chem.Eur.J. 2012 18 9955

-------
ENTROPY
-------

The entropy contributions are T*S = T*(S(el)+S(vib)+S(rot)+S(trans))
     S(el)   - electronic entropy
     S(vib)  - vibrational entropy
     S(rot)  - rotational entropy
     S(trans)- translational entropy
The entropies will be listed as mutliplied by the temperature to get
units of energy

Electronic entropy                ...      0.00000000 Eh      0.00 kcal/mol
Vibrational entropy               ...      0.00001032 Eh      0.01 kcal/mol
Rotational entropy                ...      0.00625757 Eh      3.93 kcal/mol
Translational entropy             ...      0.01771124 Eh     11.11 kcal/mol
-----------------------------------------------------------------------
Final entropy term                ...      0.02397914 Eh     15.05 kcal/mol

In case the symmetry of your molecule has not been determined correctly
or in case you have a reason to use a different symmetry number we print
out the resulting rotational entropy values for sn=1,12 :
 --------------------------------------------------------
|  sn= 1 | S(rot)=      -0.02225134 Eh    -13.96 kcal/mol|
|  sn= 2 | S(rot)=      -0.02290580 Eh    -14.37 kcal/mol|
|  sn= 3 | S(rot)=      -0.02328863 Eh    -14.61 kcal/mol|
|  sn= 4 | S(rot)=      -0.02356025 Eh    -14.78 kcal/mol|
|  sn= 5 | S(rot)=      -0.02377094 Eh    -14.92 kcal/mol|
|  sn= 6 | S(rot)=      -0.02394309 Eh    -15.02 kcal/mol|
|  sn= 7 | S(rot)=      -0.02408863 Eh    -15.12 kcal/mol|
|  sn= 8 | S(rot)=      -0.02421471 Eh    -15.19 kcal/mol|
|  sn= 9 | S(rot)=      -0.02432592 Eh    -15.26 kcal/mol|
|  sn=10 | S(rot)=      -0.02442540 Eh    -15.33 kcal/mol|
|  sn=11 | S(rot)=      -0.02451539 Eh    -15.38 kcal/mol|
|  sn=12 | S(rot)=      -0.02459754 Eh    -15.44 kcal/mol|
 --------------------------------------------------------

-------------------
GIBBS FREE ENERGY
-------------------

The Gibbs free energy is G = H - T*S

Total enthalpy                    ...   -364.75142435 Eh
Total entropy correction          ...     -0.02397914 Eh    -15.05 kcal/mol
-----------------------------------------------------------------------
Final Gibbs free energy         ...   -364.77540348 Eh

For completeness - the Gibbs free energy minus the electronic energy
G-E(el)                           ...     -0.01757884 Eh    -11.03 kcal/mol

                             ****ORCA TERMINATED NORMALLY****
TOTAL RUN TIME: 0 days 0 hours 0 minutes 24 seconds 467 msec
