                         Program Version 4.2.0 -  RELEASE  -
|  1> #
|  2> # 30_SO2 scanfunc/aug-cc-pvt(+d)z
|  3> #
|  4> ! scanfunc d3bj aug-cc-pvt(+d)z def2/j opt xyzfile numfreq
|  5>
|  6> *xyz 0 1
|  7> S           -0.001418646          0.484606293         -0.000000013
|  8> O            1.234874832         -0.238706427         -0.000000091
|  9> O           -1.233456186         -0.245899866          0.000000104
| 10> *
| 11>
| 12> %pal
| 13> nprocs 24
| 14> end
| 15>
| 16>
| 17>                          ****END OF INPUT****
 Total Charge           Charge          ....    0
 Multiplicity           Mult            ....    1
 Number of Electrons    NEL             ....   32
Dispersion correction           -0.000266336
FINAL SINGLE POINT ENERGY      -548.715054400798
Dispersion correction            ... done
Dispersion correction           -0.000267096
FINAL SINGLE POINT ENERGY      -548.704776210038
Dispersion correction            ... done
Dispersion correction           -0.000267073
FINAL SINGLE POINT ENERGY      -548.705467778095
Dispersion correction            ... done
Dispersion correction           -0.000267075
FINAL SINGLE POINT ENERGY      -548.705381492490
Dispersion correction            ... done
Dispersion correction           -0.000267077
FINAL SINGLE POINT ENERGY      -548.705287108425
Dispersion correction            ... done
                    ***********************HURRAY********************

CARTESIAN COORDINATES (ANGSTROEM)
---------------------------------
  S     -0.001578    0.556083   -0.000000
  O      1.148652   -0.274678   -0.000000
  O     -1.147074   -0.281405    0.000000

 Multiplicity           Mult            ....    1
 Number of Electrons    NEL             ....   32
 Basis Dimension        Dim             ....  147

ORBITAL ENERGIES
----------------

  NO   OCC          E(Eh)            E(eV)
   0   2.0000     -88.713487     -2414.0167
   1   2.0000     -19.028276      -517.7857
   2   2.0000     -19.028209      -517.7839
   3   2.0000      -8.047605      -218.9865
   4   2.0000      -5.991672      -163.0417
   5   2.0000      -5.987332      -162.9236
   6   2.0000      -5.978567      -162.6851
   7   2.0000      -1.130380       -30.7592
   8   2.0000      -1.022921       -27.8351
   9   2.0000      -0.605179       -16.4678
  10   2.0000      -0.477110       -12.9828
  11   2.0000      -0.464327       -12.6350
  12   2.0000      -0.455370       -12.3913
  13   2.0000      -0.353524        -9.6199
  14   2.0000      -0.319344        -8.6898
  15   2.0000      -0.311022        -8.4633
  16   0.0000      -0.168142        -4.5754
  17   0.0000       0.003706         0.1008
  18   0.0000       0.009361         0.2547
  19   0.0000       0.040055         1.0899
  20   0.0000       0.052033         1.4159

MULLIKEN ATOMIC CHARGES
-----------------------
   0 S :    1.113442
   1 O :   -0.556232
   2 O :   -0.557209
Sum of atomic charges:   -0.0000000

LOEWDIN ATOMIC CHARGES
----------------------
   0 S :    0.376374
   1 O :   -0.188151
   2 O :   -0.188223

  Mayer bond orders larger than 0.100000
B(  0-S ,  1-O ) :   1.8055 B(  0-S ,  2-O ) :   1.8050 B(  1-O ,  2-O ) :   0.2154

Dispersion correction           -0.000267077
FINAL SINGLE POINT ENERGY      -548.705289461208

DIPOLE MOMENT
-------------
                                X             Y             Z
Electronic contribution:     -0.00192       0.84417      -0.00000
Nuclear contribution   :      0.00007      -0.02441       0.00000
                        -----------------------------------------
Total Dipole Moment    :     -0.00186       0.81976      -0.00000
                        -----------------------------------------
Magnitude (a.u.)       :      0.81976
Magnitude (Debye)      :      2.08367

VIBRATIONAL FREQUENCIES
-----------------------

Scaling factor for frequencies =  1.000000000 (already applied!)

   0:         0.00 cm**-1
   1:         0.00 cm**-1
   2:         0.00 cm**-1
   3:         0.00 cm**-1
   4:         0.00 cm**-1
   5:         0.00 cm**-1
   6:       718.40 cm**-1
   7:      1360.22 cm**-1
   8:      1475.90 cm**-1

IR SPECTRUM
-----------

 Mode    freq (cm**-1)   T**2         TX         TY         TZ
-------------------------------------------------------------------
   6:       718.40   29.919278  ( -0.011612   5.469839   0.000000)
   7:      1360.22   23.127069  ( -0.107233   4.807865  -0.000002)
   8:      1475.90  187.803022  (-13.703940  -0.071153   0.000002)

--------------------------
THERMOCHEMISTRY AT 298.15K
--------------------------

Temperature         ... 298.15 K
Pressure            ... 1.00 atm
Total Mass          ... 64.06 AMU

Throughout the following assumptions are being made:
  (1) The electronic state is orbitally nondegenerate
  (2) There are no thermally accessible electronically excited states
  (3) Hindered rotations indicated by low frequency modes are not
      treated as such but are treated as vibrations and this may
      cause some error
  (4) All equations used are the standard statistical mechanics
      equations for an ideal gas
  (5) All vibrations are strictly harmonic

freq.     718.40  E(vib)   ...       0.07
freq.    1360.22  E(vib)   ...       0.01
freq.    1475.90  E(vib)   ...       0.00

------------
INNER ENERGY
------------

The inner energy is: U= E(el) + E(ZPE) + E(vib) + E(rot) + E(trans)
    E(el)   - is the total energy from the electronic structure calculation
              = E(kin-el) + E(nuc-el) + E(el-el) + E(nuc-nuc)
    E(ZPE)  - the the zero temperature vibrational energy from the frequency calculation
    E(vib)  - the the finite temperature correction to E(ZPE) due to population
              of excited vibrational states
    E(rot)  - is the rotational thermal energy
    E(trans)- is the translational thermal energy

Summary of contributions to the inner energy U:
Electronic energy                ...   -548.70528949 Eh
Zero point energy                ...      0.00809779 Eh       5.08 kcal/mol
Thermal vibrational correction   ...      0.00011967 Eh       0.08 kcal/mol
Thermal rotational correction    ...      0.00141627 Eh       0.89 kcal/mol
Thermal translational correction ...      0.00141627 Eh       0.89 kcal/mol
-----------------------------------------------------------------------
Total thermal energy                   -548.69423948 Eh

Summary of corrections to the electronic energy:
(perhaps to be used in another calculation)
Total thermal correction                  0.00295221 Eh       1.85 kcal/mol
Non-thermal (ZPE) correction              0.00809779 Eh       5.08 kcal/mol
-----------------------------------------------------------------------
Total correction                          0.01105001 Eh       6.93 kcal/mol

--------
ENTHALPY
--------

The enthalpy is H = U + kB*T
                kB is Boltzmann's constant
Total free energy                 ...   -548.69423948 Eh
Thermal Enthalpy correction       ...      0.00094421 Eh       0.59 kcal/mol
-----------------------------------------------------------------------
Total Enthalpy                    ...   -548.69329527 Eh

Note: Rotational entropy computed according to Herzberg
Infrared and Raman Spectra, Chapter V,1, Van Nostrand Reinhold, 1945
Point Group:  Cs, Symmetry Number:   1
Rotational constants in cm-1:     1.512930     0.399843     0.316261

Vibrational entropy computed according to the QRRHO of S. Grimme
Chem.Eur.J. 2012 18 9955

-------
ENTROPY
-------

The entropy contributions are T*S = T*(S(el)+S(vib)+S(rot)+S(trans))
     S(el)   - electronic entropy
     S(vib)  - vibrational entropy
     S(rot)  - rotational entropy
     S(trans)- translational entropy
The entropies will be listed as mutliplied by the temperature to get
units of energy

Electronic entropy                ...      0.00000000 Eh      0.00 kcal/mol
Vibrational entropy               ...      0.00015182 Eh      0.10 kcal/mol
Rotational entropy                ...      0.01029156 Eh      6.46 kcal/mol
Translational entropy             ...      0.01824046 Eh     11.45 kcal/mol
-----------------------------------------------------------------------
Final entropy term                ...      0.02868385 Eh     18.00 kcal/mol

In case the symmetry of your molecule has not been determined correctly
or in case you have a reason to use a different symmetry number we print
out the resulting rotational entropy values for sn=1,12 :
 --------------------------------------------------------
|  sn= 1 | S(rot)=       0.01029156 Eh      6.46 kcal/mol|
|  sn= 2 | S(rot)=       0.00963711 Eh      6.05 kcal/mol|
|  sn= 3 | S(rot)=       0.00925428 Eh      5.81 kcal/mol|
|  sn= 4 | S(rot)=       0.00898265 Eh      5.64 kcal/mol|
|  sn= 5 | S(rot)=       0.00877196 Eh      5.50 kcal/mol|
|  sn= 6 | S(rot)=       0.00859982 Eh      5.40 kcal/mol|
|  sn= 7 | S(rot)=       0.00845427 Eh      5.31 kcal/mol|
|  sn= 8 | S(rot)=       0.00832819 Eh      5.23 kcal/mol|
|  sn= 9 | S(rot)=       0.00821699 Eh      5.16 kcal/mol|
|  sn=10 | S(rot)=       0.00811751 Eh      5.09 kcal/mol|
|  sn=11 | S(rot)=       0.00802752 Eh      5.04 kcal/mol|
|  sn=12 | S(rot)=       0.00794536 Eh      4.99 kcal/mol|
 --------------------------------------------------------

-------------------
GIBBS FREE ENERGY
-------------------

The Gibbs free energy is G = H - T*S

Total enthalpy                    ...   -548.69329527 Eh
Total entropy correction          ...     -0.02868385 Eh    -18.00 kcal/mol
-----------------------------------------------------------------------
Final Gibbs free energy         ...   -548.72197912 Eh

For completeness - the Gibbs free energy minus the electronic energy
G-E(el)                           ...     -0.01668963 Eh    -10.47 kcal/mol

                             ****ORCA TERMINATED NORMALLY****
TOTAL RUN TIME: 0 days 0 hours 0 minutes 38 seconds 723 msec
