                         Program Version 4.2.0 -  RELEASE  -
|  1> #
|  2> # 31_CH3OH scanfunc/aug-cc-pvt(+d)z
|  3> #
|  4> ! scanfunc d3bj aug-cc-pvt(+d)z def2/j opt xyzfile numfreq
|  5>
|  6> *xyz 0 1
|  7> C           -0.363402325         -0.041285362         -0.013690119
|  8> O            0.999643168         -0.347047081         -0.277037073
|  9> H           -0.526683527          1.037540752          0.098676465
| 10> H           -0.619974523         -0.530259474          0.927500411
| 11> H           -1.027781749         -0.424805686         -0.797699235
| 12> H            1.254756116          0.072031989         -1.103555394
| 13> *
| 14>
| 15> %pal
| 16> nprocs 24
| 17> end
| 18>
| 19>
| 20>                          ****END OF INPUT****
 Total Charge           Charge          ....    0
 Multiplicity           Mult            ....    1
 Number of Electrons    NEL             ....   18
Dispersion correction           -0.000421540
FINAL SINGLE POINT ENERGY      -115.719285181136
Dispersion correction            ... done
Dispersion correction           -0.000421447
FINAL SINGLE POINT ENERGY      -115.716236244642
Dispersion correction            ... done
Dispersion correction           -0.000420955
FINAL SINGLE POINT ENERGY      -115.710281435379
Dispersion correction            ... done
FINAL SINGLE POINT ENERGY      -115.708911220420
FINAL SINGLE POINT ENERGY      -115.708462384555
FINAL SINGLE POINT ENERGY      -115.708421305405
FINAL SINGLE POINT ENERGY      -115.708449898890
FINAL SINGLE POINT ENERGY      -115.708485008411
FINAL SINGLE POINT ENERGY      -115.708520828393
FINAL SINGLE POINT ENERGY      -115.708528332895
Dispersion correction            ... done
Dispersion correction           -0.000420532
FINAL SINGLE POINT ENERGY      -115.708507579471
Dispersion correction            ... done
Dispersion correction           -0.000420524
FINAL SINGLE POINT ENERGY      -115.708488226923
Dispersion correction            ... done
                    ***********************HURRAY********************

CARTESIAN COORDINATES (ANGSTROEM)
---------------------------------
  C     -0.440670   -0.016693   -0.003283
  O      0.925028   -0.271505   -0.318107
  H     -0.534267    1.052811    0.135654
  H     -0.579998   -0.554300    0.934336
  H     -1.027164   -0.448472   -0.802670
  H      1.373628    0.004334   -1.111736

 Multiplicity           Mult            ....    1
 Number of Electrons    NEL             ....   18
 Basis Dimension        Dim             ....  184

ORBITAL ENERGIES
----------------

  NO   OCC          E(Eh)            E(eV)
   0   2.0000     -18.962197      -515.9876
   1   2.0000     -10.060463      -273.7591
   2   2.0000      -0.976313       -26.5668
   3   2.0000      -0.659560       -17.9475
   4   2.0000      -0.474774       -12.9192
   5   2.0000      -0.417186       -11.3522
   6   2.0000      -0.401375       -10.9220
   7   2.0000      -0.276882        -7.5343
   8   2.0000      -0.234095        -6.3701
   9   0.0000       0.000847         0.0230
  10   0.0000       0.022749         0.6190
  11   0.0000       0.039402         1.0722
  12   0.0000       0.045544         1.2393
  13   0.0000       0.064328         1.7505

MULLIKEN ATOMIC CHARGES
-----------------------
   0 C :   -0.462563
   1 O :   -0.480688
   2 H :    0.248639
   3 H :    0.255029
   4 H :    0.268597
   5 H :    0.170986
Sum of atomic charges:   -0.0000000

LOEWDIN ATOMIC CHARGES
----------------------
   0 C :    0.328311
   1 O :    0.790120
   2 H :   -0.204534
   3 H :   -0.197134
   4 H :   -0.206338
   5 H :   -0.510425

  Mayer bond orders larger than 0.100000
B(  0-C ,  1-O ) :   0.8361 B(  0-C ,  2-H ) :   0.9301 B(  0-C ,  3-H ) :   0.9234
B(  0-C ,  4-H ) :   0.9109 B(  1-O ,  5-H ) :   1.0092

Dispersion correction           -0.000420522
FINAL SINGLE POINT ENERGY      -115.708484277835

DIPOLE MOMENT
-------------
                                X             Y             Z
Electronic contribution:      1.42936      -0.29074      -0.26969
Nuclear contribution   :     -1.73344       0.57487      -0.09379
                        -----------------------------------------
Total Dipole Moment    :     -0.30408       0.28413      -0.36348
                        -----------------------------------------
Magnitude (a.u.)       :      0.55255
Magnitude (Debye)      :      1.40447

VIBRATIONAL FREQUENCIES
-----------------------

Scaling factor for frequencies =  1.000000000 (already applied!)

   0:         0.00 cm**-1
   1:         0.00 cm**-1
   2:         0.00 cm**-1
   3:         0.00 cm**-1
   4:         0.00 cm**-1
   5:         0.00 cm**-1
   6:      -455.39 cm**-1 ***imaginary mode***
   7:       904.86 cm**-1
   8:       996.54 cm**-1
   9:      1224.86 cm**-1
  10:      1269.84 cm**-1
  11:      1449.50 cm**-1
  12:      1469.55 cm**-1
  13:      1483.78 cm**-1
  14:      3051.23 cm**-1
  15:      3109.53 cm**-1
  16:      3155.71 cm**-1
  17:      3933.71 cm**-1

IR SPECTRUM
-----------

 Mode    freq (cm**-1)   T**2         TX         TY         TZ
-------------------------------------------------------------------
   7:       904.86   13.809092  (  1.331494  -1.818968   2.954246)
   8:       996.54  155.088336  (-12.004062   3.060899   1.273475)
   9:      1224.86    0.562458  ( -0.234540   0.645519   0.301253)
  10:      1269.84   12.576141  (  3.153500  -1.165733   1.128115)
  11:      1449.50    1.061590  (  0.140623  -0.686626   0.755222)
  12:      1469.55    3.700396  ( -0.027749  -1.136015   1.552126)
  13:      1483.78    2.955038  (  0.368049   1.319074   1.039048)
  14:      3051.23   47.698620  (  6.459152  -0.794760  -2.312213)
  15:      3109.53   33.716822  ( -3.827910   3.514036  -2.591424)
  16:      3155.71   31.544296  ( -1.671475  -4.357205  -3.124937)
  17:      3933.71   56.842348  ( -5.914204  -0.550851   4.643394)

--------------------------
THERMOCHEMISTRY AT 298.15K
--------------------------

Temperature         ... 298.15 K
Pressure            ... 1.00 atm
Total Mass          ... 32.04 AMU

Throughout the following assumptions are being made:
  (1) The electronic state is orbitally nondegenerate
  (2) There are no thermally accessible electronically excited states
  (3) Hindered rotations indicated by low frequency modes are not
      treated as such but are treated as vibrations and this may
      cause some error
  (4) All equations used are the standard statistical mechanics
      equations for an ideal gas
  (5) All vibrations are strictly harmonic

freq.     904.86  E(vib)   ...       0.03
freq.     996.54  E(vib)   ...       0.02
freq.    1224.86  E(vib)   ...       0.01
freq.    1269.84  E(vib)   ...       0.01
freq.    1449.50  E(vib)   ...       0.00
freq.    1469.55  E(vib)   ...       0.00
freq.    1483.78  E(vib)   ...       0.00
freq.    3051.23  E(vib)   ...       0.00
freq.    3109.53  E(vib)   ...       0.00
freq.    3155.71  E(vib)   ...       0.00
freq.    3933.71  E(vib)   ...       0.00

------------
INNER ENERGY
------------

The inner energy is: U= E(el) + E(ZPE) + E(vib) + E(rot) + E(trans)
    E(el)   - is the total energy from the electronic structure calculation
              = E(kin-el) + E(nuc-el) + E(el-el) + E(nuc-nuc)
    E(ZPE)  - the the zero temperature vibrational energy from the frequency calculation
    E(vib)  - the the finite temperature correction to E(ZPE) due to population
              of excited vibrational states
    E(rot)  - is the rotational thermal energy
    E(trans)- is the translational thermal energy

Summary of contributions to the inner energy U:
Electronic energy                ...   -115.70848435 Eh
Zero point energy                ...      0.05023157 Eh      31.52 kcal/mol
Thermal vibrational correction   ...      0.00013509 Eh       0.08 kcal/mol
Thermal rotational correction    ...      0.00141627 Eh       0.89 kcal/mol
Thermal translational correction ...      0.00141627 Eh       0.89 kcal/mol
-----------------------------------------------------------------------
Total thermal energy                   -115.65528515 Eh

Summary of corrections to the electronic energy:
(perhaps to be used in another calculation)
Total thermal correction                  0.00296763 Eh       1.86 kcal/mol
Non-thermal (ZPE) correction              0.05023157 Eh      31.52 kcal/mol
-----------------------------------------------------------------------
Total correction                          0.05319920 Eh      33.38 kcal/mol

--------
ENTHALPY
--------

The enthalpy is H = U + kB*T
                kB is Boltzmann's constant
Total free energy                 ...   -115.65528515 Eh
Thermal Enthalpy correction       ...      0.00094421 Eh       0.59 kcal/mol
-----------------------------------------------------------------------
Total Enthalpy                    ...   -115.65434094 Eh

Note: Only C1 symmetry has been detected, increase convergence thresholds
      if your molecule has a higher symmetry. Symmetry factor of 1.0 is
      used for the rotational entropy correction.

Note: Rotational entropy computed according to Herzberg
Infrared and Raman Spectra, Chapter V,1, Van Nostrand Reinhold, 1945
Point Group:  C1, Symmetry Number:   1
Rotational constants in cm-1:     4.399967     0.818940     0.802216

Vibrational entropy computed according to the QRRHO of S. Grimme
Chem.Eur.J. 2012 18 9955

-------
ENTROPY
-------

The entropy contributions are T*S = T*(S(el)+S(vib)+S(rot)+S(trans))
     S(el)   - electronic entropy
     S(vib)  - vibrational entropy
     S(rot)  - rotational entropy
     S(trans)- translational entropy
The entropies will be listed as mutliplied by the temperature to get
units of energy

Electronic entropy                ...      0.00000000 Eh      0.00 kcal/mol
Vibrational entropy               ...      0.00016197 Eh      0.10 kcal/mol
Rotational entropy                ...      0.00900970 Eh      5.65 kcal/mol
Translational entropy             ...      0.01725935 Eh     10.83 kcal/mol
-----------------------------------------------------------------------
Final entropy term                ...      0.02643102 Eh     16.59 kcal/mol

In case the symmetry of your molecule has not been determined correctly
or in case you have a reason to use a different symmetry number we print
out the resulting rotational entropy values for sn=1,12 :
 --------------------------------------------------------
|  sn= 1 | S(rot)=       0.00900970 Eh      5.65 kcal/mol|
|  sn= 2 | S(rot)=       0.00835524 Eh      5.24 kcal/mol|
|  sn= 3 | S(rot)=       0.00797241 Eh      5.00 kcal/mol|
|  sn= 4 | S(rot)=       0.00770078 Eh      4.83 kcal/mol|
|  sn= 5 | S(rot)=       0.00749010 Eh      4.70 kcal/mol|
|  sn= 6 | S(rot)=       0.00731795 Eh      4.59 kcal/mol|
|  sn= 7 | S(rot)=       0.00717241 Eh      4.50 kcal/mol|
|  sn= 8 | S(rot)=       0.00704633 Eh      4.42 kcal/mol|
|  sn= 9 | S(rot)=       0.00693512 Eh      4.35 kcal/mol|
|  sn=10 | S(rot)=       0.00683564 Eh      4.29 kcal/mol|
|  sn=11 | S(rot)=       0.00674565 Eh      4.23 kcal/mol|
|  sn=12 | S(rot)=       0.00666350 Eh      4.18 kcal/mol|
 --------------------------------------------------------

-------------------
GIBBS FREE ENERGY
-------------------

The Gibbs free energy is G = H - T*S

Total enthalpy                    ...   -115.65434094 Eh
Total entropy correction          ...     -0.02643102 Eh    -16.59 kcal/mol
-----------------------------------------------------------------------
Final Gibbs free energy         ...   -115.68077196 Eh

For completeness - the Gibbs free energy minus the electronic energy
G-E(el)                           ...      0.02771239 Eh     17.39 kcal/mol

                             ****ORCA TERMINATED NORMALLY****
TOTAL RUN TIME: 0 days 0 hours 1 minutes 10 seconds 472 msec
