                         Program Version 4.2.0 -  RELEASE  -
|  1> #
|  2> # 32_S2 scanfunc/aug-cc-pvt(+d)z
|  3> #
|  4> ! scanfunc d3bj aug-cc-pvt(+d)z def2/j opt xyzfile numfreq
|  5>
|  6> *xyz 0 3
|  7> S           -0.000000000         -0.000000000          0.005070157
|  8> S            0.000000000          0.000000000          1.891814433
|  9> *
| 10>
| 11> %pal
| 12> nprocs 24
| 13> end
| 14>
| 15>
| 16>                          ****END OF INPUT****
 Total Charge           Charge          ....    0
 Multiplicity           Mult            ....    3
 Number of Electrons    NEL             ....   32
Dispersion correction           -0.000217251
FINAL SINGLE POINT ENERGY      -796.525482093405
Dispersion correction            ... done
Dispersion correction           -0.000217135
FINAL SINGLE POINT ENERGY      -796.524561995036
Dispersion correction            ... done
Dispersion correction           -0.000216898
FINAL SINGLE POINT ENERGY      -796.518310416946
Dispersion correction            ... done
FINAL SINGLE POINT ENERGY      -796.513799595176
Dispersion correction            ... done
Dispersion correction           -0.000216725
FINAL SINGLE POINT ENERGY      -796.512281769270
Dispersion correction            ... done
Dispersion correction           -0.000216724
FINAL SINGLE POINT ENERGY      -796.512231301613
Dispersion correction            ... done
                    ***********************HURRAY********************

CARTESIAN COORDINATES (ANGSTROEM)
---------------------------------
  S      0.000000    0.000000   -0.085034
  S      0.000000    0.000000    1.981918

 Multiplicity           Mult            ....    3
 Number of Electrons    NEL             ....   32
 Basis Dimension        Dim             ....  110

ORBITAL ENERGIES
----------------
                 SPIN UP ORBITALS
  NO   OCC          E(Eh)            E(eV)
   0   1.0000     -88.604066     -2411.0392
   1   1.0000     -88.604049     -2411.0387
   2   1.0000      -7.949344      -216.3127
   3   1.0000      -7.949302      -216.3115
   4   1.0000      -5.894290      -160.3918
   5   1.0000      -5.894039      -160.3849
   6   1.0000      -5.885622      -160.1559
   7   1.0000      -5.885622      -160.1559
   8   1.0000      -5.885603      -160.1554
   9   1.0000      -5.885603      -160.1554
  10   1.0000      -0.767000       -20.8711
  11   1.0000      -0.621206       -16.9039
  12   1.0000      -0.368097       -10.0164
  13   1.0000      -0.340293        -9.2598
  14   1.0000      -0.340293        -9.2598
  15   1.0000      -0.245973        -6.6933
  16   1.0000      -0.245973        -6.6933
  17   0.0000      -0.082476        -2.2443
  18   0.0000       0.033048         0.8993
  19   0.0000       0.047143         1.2828
  20   0.0000       0.060647         1.6503
  21   0.0000       0.060647         1.6503

                 SPIN DOWN ORBITALS
  NO   OCC          E(Eh)            E(eV)
   0   1.0000     -88.605784     -2411.0860
   1   1.0000     -88.605767     -2411.0855
   2   1.0000      -7.946251      -216.2285
   3   1.0000      -7.946212      -216.2274
   4   1.0000      -5.886548      -160.1811
   5   1.0000      -5.886292      -160.1741
   6   1.0000      -5.880671      -160.0212
   7   1.0000      -5.880671      -160.0212
   8   1.0000      -5.880651      -160.0207
   9   1.0000      -5.880651      -160.0207
  10   1.0000      -0.734009       -19.9734
  11   1.0000      -0.559607       -15.2277
  12   1.0000      -0.356056        -9.6888
  13   1.0000      -0.291927        -7.9437
  14   1.0000      -0.291927        -7.9437
  15   0.0000      -0.172917        -4.7053
  16   0.0000      -0.172917        -4.7053
  17   0.0000      -0.055253        -1.5035
  18   0.0000       0.042327         1.1518
  19   0.0000       0.053080         1.4444

MULLIKEN ATOMIC CHARGES AND SPIN POPULATIONS
--------------------------------------------
   0 S :   -0.000000    1.000000
   1 S :    0.000000    1.000000
Sum of atomic charges         :   -0.0000000

LOEWDIN ATOMIC CHARGES AND SPIN POPULATIONS
-------------------------------------------
   0 S :   -0.000000    1.000000
   1 S :    0.000000    1.000000

  Mayer bond orders larger than 0.100000
B(  0-S ,  1-S ) :   1.9130

Dispersion correction           -0.000216724
FINAL SINGLE POINT ENERGY      -796.512230983464

DIPOLE MOMENT
-------------
                                X             Y             Z
Electronic contribution:     -0.00000      -0.00000       0.00000
Nuclear contribution   :      0.00000       0.00000       0.00000
                        -----------------------------------------
Total Dipole Moment    :     -0.00000      -0.00000       0.00000
                        -----------------------------------------
Magnitude (a.u.)       :      0.00000
Magnitude (Debye)      :      0.00000

VIBRATIONAL FREQUENCIES
-----------------------

Scaling factor for frequencies =  1.000000000 (already applied!)

   0:         0.00 cm**-1
   1:         0.00 cm**-1
   2:         0.00 cm**-1
   3:         0.00 cm**-1
   4:         0.00 cm**-1
   5:       471.51 cm**-1

IR SPECTRUM
-----------

 Mode    freq (cm**-1)   T**2         TX         TY         TZ
-------------------------------------------------------------------
   5:       471.51    0.000100  ( -0.000000   0.000000  -0.009984)

--------------------------
THERMOCHEMISTRY AT 298.15K
--------------------------

Temperature         ... 298.15 K
Pressure            ... 1.00 atm
Total Mass          ... 64.12 AMU
The molecule is recognized as being linear

Throughout the following assumptions are being made:
  (1) The electronic state is orbitally nondegenerate
      but the spin degeneracy is treated
  (2) There are no thermally accessible electronically excited states
  (3) Hindered rotations indicated by low frequency modes are not
      treated as such but are treated as vibrations and this may
      cause some error
  (4) All equations used are the standard statistical mechanics
      equations for an ideal gas
  (5) All vibrations are strictly harmonic

freq.     471.51  E(vib)   ...       0.15

------------
INNER ENERGY
------------

The inner energy is: U= E(el) + E(ZPE) + E(vib) + E(rot) + E(trans)
    E(el)   - is the total energy from the electronic structure calculation
              = E(kin-el) + E(nuc-el) + E(el-el) + E(nuc-nuc)
    E(ZPE)  - the the zero temperature vibrational energy from the frequency calculation
    E(vib)  - the the finite temperature correction to E(ZPE) due to population
              of excited vibrational states
    E(rot)  - is the rotational thermal energy
    E(trans)- is the translational thermal energy

Summary of contributions to the inner energy U:
Electronic energy                ...   -796.51223069 Eh
Zero point energy                ...      0.00107417 Eh       0.67 kcal/mol
Thermal vibrational correction   ...      0.00024607 Eh       0.15 kcal/mol
Thermal rotational correction    ...      0.00094418 Eh       0.59 kcal/mol
Thermal translational correction ...      0.00141627 Eh       0.89 kcal/mol
-----------------------------------------------------------------------
Total thermal energy                   -796.50854999 Eh

Summary of corrections to the electronic energy:
(perhaps to be used in another calculation)
Total thermal correction                  0.00260652 Eh       1.64 kcal/mol
Non-thermal (ZPE) correction              0.00107417 Eh       0.67 kcal/mol
-----------------------------------------------------------------------
Total correction                          0.00368069 Eh       2.31 kcal/mol

--------
ENTHALPY
--------

The enthalpy is H = U + kB*T
                kB is Boltzmann's constant
Total free energy                 ...   -796.50854999 Eh
Thermal Enthalpy correction       ...      0.00094421 Eh       0.59 kcal/mol
-----------------------------------------------------------------------
Total Enthalpy                    ...   -796.50760578 Eh

Note: Rotational entropy computed according to Herzberg
Infrared and Raman Spectra, Chapter V,1, Van Nostrand Reinhold, 1945
Point Group:  Dinfh, Symmetry Number:   2
Rotational constants in cm-1:     0.000000     0.246152     0.246152

Vibrational entropy computed according to the QRRHO of S. Grimme
Chem.Eur.J. 2012 18 9955

-------
ENTROPY
-------

The entropy contributions are T*S = T*(S(el)+S(vib)+S(rot)+S(trans))
     S(el)   - electronic entropy
     S(vib)  - vibrational entropy
     S(rot)  - rotational entropy
     S(trans)- translational entropy
The entropies will be listed as mutliplied by the temperature to get
units of energy

Electronic entropy                ...      0.00103729 Eh      0.65 kcal/mol
Vibrational entropy               ...      0.00034900 Eh      0.22 kcal/mol
Rotational entropy                ...      0.00664937 Eh      4.17 kcal/mol
Translational entropy             ...      0.01824183 Eh     11.45 kcal/mol
-----------------------------------------------------------------------
Final entropy term                ...      0.02627749 Eh     16.49 kcal/mol

In case the symmetry of your molecule has not been determined correctly
or in case you have a reason to use a different symmetry number we print
out the resulting rotational entropy values for sn=1,12 :
 --------------------------------------------------------
|  sn= 1 | S(rot)=             -inf Eh      -inf kcal/mol|
|  sn= 2 | S(rot)=             -inf Eh      -inf kcal/mol|
|  sn= 3 | S(rot)=             -inf Eh      -inf kcal/mol|
|  sn= 4 | S(rot)=             -inf Eh      -inf kcal/mol|
|  sn= 5 | S(rot)=             -inf Eh      -inf kcal/mol|
|  sn= 6 | S(rot)=             -inf Eh      -inf kcal/mol|
|  sn= 7 | S(rot)=             -inf Eh      -inf kcal/mol|
|  sn= 8 | S(rot)=             -inf Eh      -inf kcal/mol|
|  sn= 9 | S(rot)=             -inf Eh      -inf kcal/mol|
|  sn=10 | S(rot)=             -inf Eh      -inf kcal/mol|
|  sn=11 | S(rot)=             -inf Eh      -inf kcal/mol|
|  sn=12 | S(rot)=             -inf Eh      -inf kcal/mol|
 --------------------------------------------------------

-------------------
GIBBS FREE ENERGY
-------------------

The Gibbs free energy is G = H - T*S

Total enthalpy                    ...   -796.50760578 Eh
Total entropy correction          ...     -0.02627749 Eh    -16.49 kcal/mol
-----------------------------------------------------------------------
Final Gibbs free energy         ...   -796.53388327 Eh

For completeness - the Gibbs free energy minus the electronic energy
G-E(el)                           ...     -0.02165259 Eh    -13.59 kcal/mol

                             ****ORCA TERMINATED NORMALLY****
TOTAL RUN TIME: 0 days 0 hours 1 minutes 3 seconds 929 msec
