                         Program Version 4.2.0 -  RELEASE  -
|  1> #
|  2> # 33_SO scanfunc/aug-cc-pvt(+d)z
|  3> #
|  4> ! scanfunc d3bj aug-cc-pvt(+d)z def2/j opt xyzfile numfreq
|  5>
|  6> *xyz 0 3
|  7> S            0.000000327         -0.000000134          0.002547174
|  8> O           -0.000000327          0.000000134          1.483667376
|  9> *
| 10>
| 11> %pal
| 12> nprocs 24
| 13> end
| 14>
| 15>
| 16>                          ****END OF INPUT****
 Total Charge           Charge          ....    0
 Multiplicity           Mult            ....    3
 Number of Electrons    NEL             ....   24
Dispersion correction           -0.000108700
FINAL SINGLE POINT ENERGY      -473.445872094024
Dispersion correction            ... done
Dispersion correction           -0.000108704
FINAL SINGLE POINT ENERGY      -473.445749928104
Dispersion correction            ... done
Dispersion correction           -0.000108707
FINAL SINGLE POINT ENERGY      -473.445553023121
Dispersion correction            ... done
Dispersion correction           -0.000108707
FINAL SINGLE POINT ENERGY      -473.445560835453
Dispersion correction            ... done
                    ***********************HURRAY********************

CARTESIAN COORDINATES (ANGSTROEM)
---------------------------------
  S      0.000000   -0.000000    0.009081
  O     -0.000000    0.000000    1.477134

 Multiplicity           Mult            ....    3
 Number of Electrons    NEL             ....   24
 Basis Dimension        Dim             ....  101

ORBITAL ENERGIES
----------------
                 SPIN UP ORBITALS
  NO   OCC          E(Eh)            E(eV)
   0   1.0000     -88.631120     -2411.7754
   1   1.0000     -19.055556      -518.5280
   2   1.0000      -7.977805      -217.0871
   3   1.0000      -5.921480      -161.1317
   4   1.0000      -5.914979      -160.9548
   5   1.0000      -5.914979      -160.9548
   6   1.0000      -1.060184       -28.8491
   7   1.0000      -0.649141       -17.6640
   8   1.0000      -0.429363       -11.6836
   9   1.0000      -0.425396       -11.5756
  10   1.0000      -0.425396       -11.5756
  11   1.0000      -0.237210        -6.4548
  12   1.0000      -0.237210        -6.4548
  13   0.0000      -0.031099        -0.8462
  14   0.0000       0.035254         0.9593
  15   0.0000       0.063229         1.7206
  16   0.0000       0.063229         1.7206
  17   0.0000       0.077241         2.1018

                 SPIN DOWN ORBITALS
  NO   OCC          E(Eh)            E(eV)
   0   1.0000     -88.632878     -2411.8232
   1   1.0000     -19.020085      -517.5628
   2   1.0000      -7.973541      -216.9711
   3   1.0000      -5.912140      -160.8775
   4   1.0000      -5.908489      -160.7782
   5   1.0000      -5.908489      -160.7782
   6   1.0000      -1.037892       -28.2425
   7   1.0000      -0.584940       -15.9170
   8   1.0000      -0.393903       -10.7186
   9   1.0000      -0.377406       -10.2697
  10   1.0000      -0.377406       -10.2697
  11   0.0000      -0.149774        -4.0756
  12   0.0000      -0.149774        -4.0756
  13   0.0000      -0.007515        -0.2045
  14   0.0000       0.061517         1.6740
  15   0.0000       0.068859         1.8738

MULLIKEN ATOMIC CHARGES AND SPIN POPULATIONS
--------------------------------------------
   0 S :    0.488082    1.252543
   1 O :   -0.488082    0.747457
Sum of atomic charges         :    0.0000000

LOEWDIN ATOMIC CHARGES AND SPIN POPULATIONS
-------------------------------------------
   0 S :    0.441916    1.259961
   1 O :   -0.441916    0.740039

  Mayer bond orders larger than 0.100000
B(  0-S ,  1-O ) :   1.8463

Dispersion correction           -0.000108707
FINAL SINGLE POINT ENERGY      -473.445561311867

DIPOLE MOMENT
-------------
                                X             Y             Z
Electronic contribution:      0.00000      -0.00000      -0.60655
Nuclear contribution   :     -0.00000       0.00000       0.02863
                        -----------------------------------------
Total Dipole Moment    :      0.00000      -0.00000      -0.57792
                        -----------------------------------------
Magnitude (a.u.)       :      0.57792
Magnitude (Debye)      :      1.46895

VIBRATIONAL FREQUENCIES
-----------------------

Scaling factor for frequencies =  1.000000000 (already applied!)

   0:         0.00 cm**-1
   1:         0.00 cm**-1
   2:         0.00 cm**-1
   3:         0.00 cm**-1
   4:         0.00 cm**-1
   5:      1253.11 cm**-1

IR SPECTRUM
-----------

 Mode    freq (cm**-1)   T**2         TX         TY         TZ
-------------------------------------------------------------------
   5:      1253.11   26.923412  ( -0.000003   0.000001   5.188778)

--------------------------
THERMOCHEMISTRY AT 298.15K
--------------------------

Temperature         ... 298.15 K
Pressure            ... 1.00 atm
Total Mass          ... 48.06 AMU
The molecule is recognized as being linear

Throughout the following assumptions are being made:
  (1) The electronic state is orbitally nondegenerate
      but the spin degeneracy is treated
  (2) There are no thermally accessible electronically excited states
  (3) Hindered rotations indicated by low frequency modes are not
      treated as such but are treated as vibrations and this may
      cause some error
  (4) All equations used are the standard statistical mechanics
      equations for an ideal gas
  (5) All vibrations are strictly harmonic

freq.    1253.11  E(vib)   ...       0.01

------------
INNER ENERGY
------------

The inner energy is: U= E(el) + E(ZPE) + E(vib) + E(rot) + E(trans)
    E(el)   - is the total energy from the electronic structure calculation
              = E(kin-el) + E(nuc-el) + E(el-el) + E(nuc-nuc)
    E(ZPE)  - the the zero temperature vibrational energy from the frequency calculation
    E(vib)  - the the finite temperature correction to E(ZPE) due to population
              of excited vibrational states
    E(rot)  - is the rotational thermal energy
    E(trans)- is the translational thermal energy

Summary of contributions to the inner energy U:
Electronic energy                ...   -473.44555970 Eh
Zero point energy                ...      0.00285480 Eh       1.79 kcal/mol
Thermal vibrational correction   ...      0.00001354 Eh       0.01 kcal/mol
Thermal rotational correction    ...      0.00094418 Eh       0.59 kcal/mol
Thermal translational correction ...      0.00141627 Eh       0.89 kcal/mol
-----------------------------------------------------------------------
Total thermal energy                   -473.44033092 Eh

Summary of corrections to the electronic energy:
(perhaps to be used in another calculation)
Total thermal correction                  0.00237399 Eh       1.49 kcal/mol
Non-thermal (ZPE) correction              0.00285480 Eh       1.79 kcal/mol
-----------------------------------------------------------------------
Total correction                          0.00522878 Eh       3.28 kcal/mol

--------
ENTHALPY
--------

The enthalpy is H = U + kB*T
                kB is Boltzmann's constant
Total free energy                 ...   -473.44033092 Eh
Thermal Enthalpy correction       ...      0.00094421 Eh       0.59 kcal/mol
-----------------------------------------------------------------------
Total Enthalpy                    ...   -473.43938671 Eh

Note: Rotational entropy computed according to Herzberg
Infrared and Raman Spectra, Chapter V,1, Van Nostrand Reinhold, 1945
Point Group:  Cinfv, Symmetry Number:   1
Rotational constants in cm-1:     0.000000     0.732879     0.732879

Vibrational entropy computed according to the QRRHO of S. Grimme
Chem.Eur.J. 2012 18 9955

-------
ENTROPY
-------

The entropy contributions are T*S = T*(S(el)+S(vib)+S(rot)+S(trans))
     S(el)   - electronic entropy
     S(vib)  - vibrational entropy
     S(rot)  - rotational entropy
     S(trans)- translational entropy
The entropies will be listed as mutliplied by the temperature to get
units of energy

Electronic entropy                ...      0.00103729 Eh      0.65 kcal/mol
Vibrational entropy               ...      0.00001578 Eh      0.01 kcal/mol
Rotational entropy                ...      0.00627369 Eh      3.94 kcal/mol
Translational entropy             ...      0.01783348 Eh     11.19 kcal/mol
-----------------------------------------------------------------------
Final entropy term                ...      0.02516024 Eh     15.79 kcal/mol

In case the symmetry of your molecule has not been determined correctly
or in case you have a reason to use a different symmetry number we print
out the resulting rotational entropy values for sn=1,12 :
 --------------------------------------------------------
|  sn= 1 | S(rot)=             -nan Eh      -nan kcal/mol|
|  sn= 2 | S(rot)=             -nan Eh      -nan kcal/mol|
|  sn= 3 | S(rot)=             -nan Eh      -nan kcal/mol|
|  sn= 4 | S(rot)=             -nan Eh      -nan kcal/mol|
|  sn= 5 | S(rot)=             -nan Eh      -nan kcal/mol|
|  sn= 6 | S(rot)=             -nan Eh      -nan kcal/mol|
|  sn= 7 | S(rot)=             -nan Eh      -nan kcal/mol|
|  sn= 8 | S(rot)=             -nan Eh      -nan kcal/mol|
|  sn= 9 | S(rot)=             -nan Eh      -nan kcal/mol|
|  sn=10 | S(rot)=             -nan Eh      -nan kcal/mol|
|  sn=11 | S(rot)=             -nan Eh      -nan kcal/mol|
|  sn=12 | S(rot)=             -nan Eh      -nan kcal/mol|
 --------------------------------------------------------

-------------------
GIBBS FREE ENERGY
-------------------

The Gibbs free energy is G = H - T*S

Total enthalpy                    ...   -473.43938671 Eh
Total entropy correction          ...     -0.02516024 Eh    -15.79 kcal/mol
-----------------------------------------------------------------------
Final Gibbs free energy         ...   -473.46454695 Eh

For completeness - the Gibbs free energy minus the electronic energy
G-E(el)                           ...     -0.01898724 Eh    -11.91 kcal/mol

                             ****ORCA TERMINATED NORMALLY****
TOTAL RUN TIME: 0 days 0 hours 0 minutes 44 seconds 399 msec
