                               Psi4 1.3.2 release

  ==> Input File <==

--------------------------------------------------------------------------
memory 144 GB

molecule {
0 1
B     0.000025702137  -0.000052552589  -0.198407020528
H    -0.399622606768  -1.029858472420   0.215550091991
H    -0.171134703482   0.990434479161   0.419174884486
H     0.570731623988   0.039476540557  -1.230190221591}

set basis aug-cc-pV(Q+d)Z
set step_type nr
set dynamic_level 1

optimize("B2PLYP-D3BJ")
frequencies("B2PLYP-D3BJ")
--------------------------------------------------------------------------

    Molecular point group: c1
  Charge       = 0
  Multiplicity = 1
  Basis Set: AUG-CC-PV(Q+D)Z
    Blend: AUG-CC-PV(Q+D)Z
  Basis Set: (AUG-CC-PV(Q+D)Z AUX)
    Blend: AUG-CC-PVQZ-JKFIT
  @DF-RKS Final Energy:   -26.54642811601069
    Total Energy =                        -26.5464281160106879
  Basis Set: (AUG-CC-PV(Q+D)Z AUX)
    Blend: AUG-CC-PVQZ-RI
	 Reference Energy          =     -26.5464281160106879 [Eh]
	 Singles Energy            =      -0.0000000000000000 [Eh]
	 Same-Spin Energy          =      -0.0178852754266461 [Eh]
	 Opposite-Spin Energy      =      -0.1548565919362928 [Eh]
	 Correlation Energy        =      -0.1727418673629388 [Eh]
	 Total Energy              =     -26.7191699833736251 [Eh]
	 SCS Total Energy          =     -26.7382177848097875 [Eh]
    Molecular point group: c1
  Basis Set: AUG-CC-PV(Q+D)Z
    Blend: AUG-CC-PV(Q+D)Z
  Basis Set: (AUG-CC-PV(Q+D)Z AUX)
    Blend: AUG-CC-PVQZ-JKFIT
  @DF-RKS Final Energy:   -26.54642702901645
    Total Energy =                        -26.5464270290164457
  Basis Set: (AUG-CC-PV(Q+D)Z AUX)
  @DF-RKS Final Energy:   -26.54642708345272
    Total Energy =                        -26.5464270834527198
  @DF-RKS Final Energy:   -26.54642570559203
    Total Energy =                        -26.5464257055920356
  @DF-RKS Final Energy:   -26.54642599127175
    Total Energy =                        -26.5464259912717537
  @DF-RKS Final Energy:   -26.54642632563833
    Total Energy =                        -26.5464263256383255
  @DF-RKS Final Energy:   -26.54642606369976
    Total Energy =                        -26.5464260636997551
  @DF-RKS Final Energy:   -26.54643773227007
    Total Energy =                        -26.5464377322700713
  @DF-RKS Final Energy:   -26.54641354972554
    Total Energy =                        -26.5464135497255356
  @DF-RKS Final Energy:   -26.54643504381298
    Total Energy =                        -26.5464350438129770
  @DF-RKS Final Energy:   -26.54641663264436
    Total Energy =                        -26.5464166326443554
  @DF-RKS Final Energy:   -26.54644050939077
    Total Energy =                        -26.5464405093907665
  @DF-RKS Final Energy:   -26.54641037618553
    Total Energy =                        -26.5464103761855270
  @DF-RKS Final Energy:   -26.54642811601230
    Total Energy =                        -26.5464281160123008
  @DF-RKS Final Energy:   -26.54642702901675
    Total Energy =                        -26.5464270290167441
  @DF-RKS Final Energy:   -26.54642708344701
    Total Energy =                        -26.5464270834470071
  @DF-RKS Final Energy:   -26.54642570559431
    Total Energy =                        -26.5464257055943094
  @DF-RKS Final Energy:   -26.54642599127475
    Total Energy =                        -26.5464259912747451
  @DF-RKS Final Energy:   -26.54642632565204
    Total Energy =                        -26.5464263256520354
  @DF-RKS Final Energy:   -26.54642606369492
    Total Energy =                        -26.5464260636949234
  **** Optimization is complete! (in 3 steps) ****
    Final optimized geometry and variables:
  @DF-RKS Final Energy:   -26.54645939457628
    Total Energy =                        -26.5464593945762743
  @DF-RKS Final Energy:   -26.54645977762976
    Total Energy =                        -26.5464597776297566
  @DF-RKS Final Energy:   -26.54646085989114
    Total Energy =                        -26.5464608598911376
  @DF-RKS Final Energy:   -26.54646116024596
    Total Energy =                        -26.5464611602459613
  @DF-RKS Final Energy:   -26.54645853980479
    Total Energy =                        -26.5464585398047852
  @DF-RKS Final Energy:   -26.54645875890838
    Total Energy =                        -26.5464587589083791
  @DF-RKS Final Energy:   -26.54645661318876
    Total Energy =                        -26.5464566131887523
  @DF-RKS Final Energy:   -26.54645689961218
    Total Energy =                        -26.5464568996121777
  @DF-RKS Final Energy:   -26.54645757422320
    Total Energy =                        -26.5464575742231972
  @DF-RKS Final Energy:   -26.54645814372867
    Total Energy =                        -26.5464581437286711
  @DF-RKS Final Energy:   -26.54645849864443
    Total Energy =                        -26.5464584986444230
  @DF-RKS Final Energy:   -26.54645901288677
    Total Energy =                        -26.5464590128867677
  @DF-RKS Final Energy:   -26.54645633461971
    Total Energy =                        -26.5464563346197053
  @DF-RKS Final Energy:   -26.54645675805612
    Total Energy =                        -26.5464567580561166
  @DF-RKS Final Energy:   -26.54645902826384
    Total Energy =                        -26.5464590282638433
  @DF-RKS Final Energy:   -26.54645953129410
    Total Energy =                        -26.5464595312941007
  @DF-RKS Final Energy:   -26.54645670064507
    Total Energy =                        -26.5464567006450736
  @DF-RKS Final Energy:   -26.54645747833584
    Total Energy =                        -26.5464574783358351
  Multiplicity = 1
  @DF-RKS Final Energy:   -26.54645715921312
    Total Energy =                        -26.5464571592131193
	 Singles Energy            =      -0.0000000000000000 [Eh]
	 Same-Spin Energy          =      -0.0178641259909787 [Eh]
	 Opposite-Spin Energy      =      -0.1548746345586658 [Eh]
	 Correlation Energy        =      -0.1727387605496445 [Eh]
	 Total Energy              =     -26.7191959197627646 [Eh]
	 SCS Total Energy          =     -26.7382614293471761 [Eh]
    Molecular point group: c1

    Geometry (in Angstrom), charge = 0, multiplicity = 1:

       Center              X                  Y                   Z               Mass
    ------------   -----------------  -----------------  -----------------  -----------------
         B            0.000010763624    -0.000004019723     0.000008775395    11.009305360000
         H           -0.401321214138    -1.035865062104     0.415210211936     1.007825032230
         H           -0.172201246713     0.997208033597     0.621610614448     1.007825032230
         H            0.573404880896     0.038700939259    -1.036916687274     1.007825032230

  Charge       = 0
  Multiplicity = 1
  Basis Set: AUG-CC-PV(Q+D)Z
    Blend: AUG-CC-PV(Q+D)Z
  Basis Set: (AUG-CC-PV(Q+D)Z AUX)
    Blend: AUG-CC-PVQZ-JKFIT

    Orbital Energies [Eh]
    ---------------------

    Doubly Occupied:

       1A     -7.117514     2A     -0.596723     3A     -0.416867
       4A     -0.416860

  @DF-RKS Final Energy:   -26.54645782673282

   => Energetics <=

    Nuclear Repulsion Energy =              7.4632783765385522
    One-Electron Energy =                 -49.1482032345088271
    Two-Electron Energy =                  17.6010167432079925
    DFT Exchange-Correlation Energy =      -2.4619492219705439
    Empirical Dispersion Energy =          -0.0006004900000000
    VV10 Nonlocal Energy =                  0.0000000000000000
    Total Energy =                        -26.5464578267328228

  Dipole Moment: [D]
     X:     0.0005      Y:    -0.0013      Z:    -0.0011     Total:     0.0018

  Basis Set: (AUG-CC-PV(Q+D)Z AUX)
    Blend: AUG-CC-PVQZ-RI
	 Reference Energy          =     -26.5464578267328228 [Eh]
	 Singles Energy            =      -0.0000000000000000 [Eh]
	 Same-Spin Energy          =      -0.0178416579261923 [Eh]
	 Opposite-Spin Energy      =      -0.1548952622572660 [Eh]
	 Correlation Energy        =      -0.1727369201834583 [Eh]
	 Total Energy              =     -26.7191947469162798 [Eh]

	 ================> DF-SCS-MP2 Energies <==================
	-----------------------------------------------------------
	 SCS Same-Spin Scale       =       0.3333333333333333 [-]
	 SCS Opposite-Spin Scale   =       1.2000000000000000 [-]
	 SCS Same-Spin Energy      =      -0.0059472193087308 [Eh]
	 SCS Opposite-Spin Energy  =      -0.1858743147087192 [Eh]
	 SCS Correlation Energy    =      -0.1918215340174499 [Eh]
	 SCS Total Energy          =     -26.7382793607502727 [Eh]
	-----------------------------------------------------------

  Vibration                       7                   8                   9
  Freq [cm^-1]                1170.2289           1262.8164           1270.2016
  Irrep                           A                   A                   A
  Reduced mass [u]              1.2530              1.1123              1.1087
  Force const [mDyne/A]         1.0110              1.0450              1.0540

  Vibration                       10                  11                  12
  Freq [cm^-1]                2599.5229           2734.1223           2740.3186
  Irrep                           A                   A                   A
  Reduced mass [u]              1.0080              1.1224              1.1253
  Force const [mDyne/A]         4.0134              4.9433              4.9786

  ==> Thermochemistry Components <==

  Entropy, S
    Electronic S            0.000 [cal/(mol K)]        0.000 [J/(mol K)]       0.00000000 [mEh/K] (multiplicity = 1)
    Translational S        33.864 [cal/(mol K)]      141.688 [J/(mol K)]       0.05396630 [mEh/K] (mol. weight = 14.0328 [u], P = 101325.00 [Pa])
    Rotational S           14.528 [cal/(mol K)]       60.784 [J/(mol K)]       0.02315147 [mEh/K] (symmetry no. = 1)
    Vibrational S           0.110 [cal/(mol K)]        0.459 [J/(mol K)]       0.00017488 [mEh/K]
  Total S                  48.502 [cal/(mol K)]      202.932 [J/(mol K)]       0.07729265 [mEh/K]
  Correction S              0.000 [cal/(mol K)]        0.000 [J/(mol K)]       0.00000000 [mEh/K]

  Constant volume heat capacity, Cv
    Electronic Cv           0.000 [cal/(mol K)]        0.000 [J/(mol K)]       0.00000000 [mEh/K]
    Translational Cv        2.981 [cal/(mol K)]       12.472 [J/(mol K)]       0.00475022 [mEh/K]
    Rotational Cv           2.981 [cal/(mol K)]       12.472 [J/(mol K)]       0.00475022 [mEh/K]
    Vibrational Cv          0.558 [cal/(mol K)]        2.335 [J/(mol K)]       0.00088936 [mEh/K]
  Total Cv                  6.520 [cal/(mol K)]       27.278 [J/(mol K)]       0.01038980 [mEh/K]
  Correction Cv             0.000 [cal/(mol K)]        0.000 [J/(mol K)]       0.00000000 [mEh/K]

  Constant pressure heat capacity, Cp
    Electronic Cp           0.000 [cal/(mol K)]        0.000 [J/(mol K)]       0.00000000 [mEh/K]
    Translational Cp        4.968 [cal/(mol K)]       20.786 [J/(mol K)]       0.00791703 [mEh/K]
    Rotational Cp           2.981 [cal/(mol K)]       12.472 [J/(mol K)]       0.00475022 [mEh/K]
    Vibrational Cp          0.558 [cal/(mol K)]        2.335 [J/(mol K)]       0.00088936 [mEh/K]
  Total Cp                  8.507 [cal/(mol K)]       35.593 [J/(mol K)]       0.01355661 [mEh/K]
  Correction Cp             0.000 [cal/(mol K)]        0.000 [J/(mol K)]       0.00000000 [mEh/K]

  ==> Thermochemistry Energy Analysis <==

  Raw electronic energy, E0
  Total E0, Electronic energy at well bottom at 0 [K]                  -26.59310229 [Eh]

  Zero-point energy, ZPE_vib = Sum_i nu_i / 2
    Electronic ZPE          0.000 [kcal/mol]        0.000 [kJ/mol]       0.00000000 [Eh]
    Translational ZPE       0.000 [kcal/mol]        0.000 [kJ/mol]       0.00000000 [Eh]
    Rotational ZPE          0.000 [kcal/mol]        0.000 [kJ/mol]       0.00000000 [Eh]
    Vibrational ZPE        16.836 [kcal/mol]       70.443 [kJ/mol]       0.02683046 [Eh]        5888.605 [cm^-1]
  Correction ZPE           16.836 [kcal/mol]       70.443 [kJ/mol]       0.02683046 [Eh]        5888.605 [cm^-1]
  Total ZPE, Electronic energy at 0 [K]                                -26.56627183 [Eh]

  Thermal Energy, E (includes ZPE)
    Electronic E            0.000 [kcal/mol]        0.000 [kJ/mol]       0.00000000 [Eh]
    Translational E         0.889 [kcal/mol]        3.718 [kJ/mol]       0.00141628 [Eh]
    Rotational E            0.889 [kcal/mol]        3.718 [kJ/mol]       0.00141628 [Eh]
    Vibrational E          16.864 [kcal/mol]       70.560 [kJ/mol]       0.02687507 [Eh]
  Correction E             18.642 [kcal/mol]       77.997 [kJ/mol]       0.02970762 [Eh]
  Total E, Electronic energy at  298.15 [K]                            -26.56339467 [Eh]

  Enthalpy, H_trans = E_trans + k_B * T
    Electronic H            0.000 [kcal/mol]        0.000 [kJ/mol]       0.00000000 [Eh]
    Translational H         1.481 [kcal/mol]        6.197 [kJ/mol]       0.00236046 [Eh]
    Rotational H            0.889 [kcal/mol]        3.718 [kJ/mol]       0.00141628 [Eh]
    Vibrational H          16.864 [kcal/mol]       70.560 [kJ/mol]       0.02687507 [Eh]
  Correction H             19.234 [kcal/mol]       80.476 [kJ/mol]       0.03065180 [Eh]
  Total H, Enthalpy at  298.15 [K]                                     -26.56245049 [Eh]

  Gibbs free energy, G = H - T * S
    Electronic G            0.000 [kcal/mol]        0.000 [kJ/mol]       0.00000000 [Eh]
    Translational G        -8.615 [kcal/mol]      -36.047 [kJ/mol]      -0.01372959 [Eh]
    Rotational G           -3.443 [kcal/mol]      -14.404 [kJ/mol]      -0.00548633 [Eh]
    Vibrational G          16.832 [kcal/mol]       70.424 [kJ/mol]       0.02682293 [Eh]
  Correction G              4.773 [kcal/mol]       19.972 [kJ/mol]       0.00760700 [Eh]
  Total G, Free enthalpy at  298.15 [K]                                -26.58549529 [Eh]

*** Psi4 exiting successfully. Buy a developer a beer!
