                               Psi4 1.3.2 release

  ==> Input File <==

--------------------------------------------------------------------------
memory 144 GB

molecule {
0 1
C            0.000128161          0.000006859         -0.000046363
H           -0.025380793         -0.000000920          1.085340864
H           -0.503031713          0.886470488         -0.373856358
H            1.031948482          0.000012964         -0.337764650
H           -0.503023875         -0.886455093         -0.373871005
}

set basis aug-cc-pV(Q+d)Z

optimize("B2PLYP-D3BJ")
frequencies("B2PLYP-D3BJ")
--------------------------------------------------------------------------

    Molecular point group: c1
  Charge       = 0
  Multiplicity = 1
  Basis Set: AUG-CC-PV(Q+D)Z
    Blend: AUG-CC-PV(Q+D)Z
  Basis Set: (AUG-CC-PV(Q+D)Z AUX)
    Blend: AUG-CC-PVQZ-JKFIT
  @DF-RKS Final Energy:   -40.42621960278549
    Total Energy =                        -40.4262196027854870
  Basis Set: (AUG-CC-PV(Q+D)Z AUX)
    Blend: AUG-CC-PVQZ-RI
	 Reference Energy          =     -40.4262196027854870 [Eh]
	 Singles Energy            =      -0.0000000000000000 [Eh]
	 Same-Spin Energy          =      -0.0503779187721616 [Eh]
	 Opposite-Spin Energy      =      -0.2319908881859802 [Eh]
	 Correlation Energy        =      -0.2823688069581418 [Eh]
	 Total Energy              =     -40.7085884097436264 [Eh]
	 SCS Total Energy          =     -40.7214013081993826 [Eh]
    Molecular point group: c1
  Basis Set: AUG-CC-PV(Q+D)Z
    Blend: AUG-CC-PV(Q+D)Z
  Basis Set: (AUG-CC-PV(Q+D)Z AUX)
    Blend: AUG-CC-PVQZ-JKFIT
  @DF-RKS Final Energy:   -40.42621732917241
    Total Energy =                        -40.4262173291724167
  Basis Set: (AUG-CC-PV(Q+D)Z AUX)
  @DF-RKS Final Energy:   -40.42621731478489
    Total Energy =                        -40.4262173147848785
  @DF-RKS Final Energy:   -40.42621733368968
    Total Energy =                        -40.4262173336896851
  @DF-RKS Final Energy:   -40.42621733721298
    Total Energy =                        -40.4262173372129752
  @DF-RKS Final Energy:   -40.42621694601474
    Total Energy =                        -40.4262169460147405
  @DF-RKS Final Energy:   -40.42621695911526
    Total Energy =                        -40.4262169591152585
  @DF-RKS Final Energy:   -40.42621735239965
    Total Energy =                        -40.4262173523996537
  @DF-RKS Final Energy:   -40.42621792847844
    Total Energy =                        -40.4262179284784580
  @DF-RKS Final Energy:   -40.42621734851674
    Total Energy =                        -40.4262173485167366
  @DF-RKS Final Energy:   -40.42621734857845
    Total Energy =                        -40.4262173485784544
  @DF-RKS Final Energy:   -40.42622520832077
    Total Energy =                        -40.4262252083207656
  @DF-RKS Final Energy:   -40.42620537821275
    Total Energy =                        -40.4262053782127424
  @DF-RKS Final Energy:   -40.42620983070898
    Total Energy =                        -40.4262098307089772
  @DF-RKS Final Energy:   -40.42622206076181
    Total Energy =                        -40.4262220607618232
  @DF-RKS Final Energy:   -40.42622338426145
    Total Energy =                        -40.4262233842614620
  @DF-RKS Final Energy:   -40.42620810698219
    Total Energy =                        -40.4262081069821875
  @DF-RKS Final Energy:   -40.42622506150325
    Total Energy =                        -40.4262250615032528
  @DF-RKS Final Energy:   -40.42620551481605
    Total Energy =                        -40.4262055148160542
  @DF-RKS Final Energy:   -40.42622623978133
    Total Energy =                        -40.4262262397813359
  **** Optimization is complete! (in 2 steps) ****
    Final optimized geometry and variables:
  @DF-RKS Final Energy:   -40.42620464492646
    Total Energy =                        -40.4262046449264645
  @DF-RKS Final Energy:   -40.42623144980546
    Total Energy =                        -40.4262314498054636
  @DF-RKS Final Energy:   -40.42621975326338
    Total Energy =                        -40.4262197532633891
  @DF-RKS Final Energy:   -40.42622170644270
    Total Energy =                        -40.4262217064427105
  @DF-RKS Final Energy:   -40.42621372992540
    Total Energy =                        -40.4262137299254007
  @DF-RKS Final Energy:   -40.42622885001746
    Total Energy =                        -40.4262288500174591
  @DF-RKS Final Energy:   -40.42621077322826
    Total Energy =                        -40.4262107732282558
  @DF-RKS Final Energy:   -40.42622587194146
    Total Energy =                        -40.4262258719414618
  @DF-RKS Final Energy:   -40.42621111167927
    Total Energy =                        -40.4262111116792724
  @DF-RKS Final Energy:   -40.42622627664332
    Total Energy =                        -40.4262262766433054
  @DF-RKS Final Energy:   -40.42621284872181
    Total Energy =                        -40.4262128487218106
  @DF-RKS Final Energy:   -40.42622759747243
    Total Energy =                        -40.4262275974724190
  @DF-RKS Final Energy:   -40.42621181328305
    Total Energy =                        -40.4262118132830466
  @DF-RKS Final Energy:   -40.42622620612379
    Total Energy =                        -40.4262262061237863
  @DF-RKS Final Energy:   -40.42620230013038
    Total Energy =                        -40.4262023001303845
  @DF-RKS Final Energy:   -40.42623240662245
    Total Energy =                        -40.4262324066224465
  @DF-RKS Final Energy:   -40.42621800679244
    Total Energy =                        -40.4262180067924390
  @DF-RKS Final Energy:   -40.42622331564134
    Total Energy =                        -40.4262233156413444
  Multiplicity = 1
  @DF-RKS Final Energy:   -40.42620441949648
    Total Energy =                        -40.4262044194964787
	 Singles Energy            =      -0.0000000000000000 [Eh]
	 Same-Spin Energy          =      -0.0503741447449733 [Eh]
	 Opposite-Spin Energy      =      -0.2320234058282785 [Eh]
	 Correlation Energy        =      -0.2823975505732518 [Eh]
	 Total Energy              =     -40.7086019700697292 [Eh]
	 SCS Total Energy          =     -40.7214238880720671 [Eh]
    Molecular point group: c1

    Geometry (in Angstrom), charge = 0, multiplicity = 1:

       Center              X                  Y                   Z               Mass
    ------------   -----------------  -----------------  -----------------  -----------------
         C            0.000005604312     0.000002420137    -0.000009067806    12.000000000000
         H           -0.025524391339    -0.000012078063     1.084773188541     1.007825032230
         H           -0.502950106918     0.884060960330    -0.373566600879     1.007825032230
         H            1.030120833033    -0.000711881125    -0.337541583049     1.007825032230
         H           -0.501713064355    -0.883365817300    -0.373557035803     1.007825032230

  Charge       = 0
  Multiplicity = 1
  Basis Set: AUG-CC-PV(Q+D)Z
    Blend: AUG-CC-PV(Q+D)Z
  Basis Set: (AUG-CC-PV(Q+D)Z AUX)
    Blend: AUG-CC-PVQZ-JKFIT

    Orbital Energies [Eh]
    ---------------------

    Doubly Occupied:

       1A    -10.590473     2A     -0.800842     3A     -0.458791
       4A     -0.458712     5A     -0.458394

  @DF-RKS Final Energy:   -40.42623120375785

   => Energetics <=

    Nuclear Repulsion Energy =             13.5127681973306419
    One-Electron Energy =                 -79.9610096287889718
    Two-Electron Energy =                  29.3342811121359794
    DFT Exchange-Correlation Energy =      -3.3114796444355044
    Empirical Dispersion Energy =          -0.0007912400000000
    VV10 Nonlocal Energy =                  0.0000000000000000
    Total Energy =                        -40.4262312037578511

  Dipole Moment: [D]
     X:    -0.0010      Y:    -0.0009      Z:    -0.0017     Total:     0.0022

  Basis Set: (AUG-CC-PV(Q+D)Z AUX)
    Blend: AUG-CC-PVQZ-RI
	 Reference Energy          =     -40.4262312037578511 [Eh]
	 Singles Energy            =      -0.0000000000000000 [Eh]
	 Same-Spin Energy          =      -0.0503874233147676 [Eh]
	 Opposite-Spin Energy      =      -0.2319105693681955 [Eh]
	 Correlation Energy        =      -0.2822979926829631 [Eh]
	 Total Energy              =     -40.7085291964408142 [Eh]

	 ================> DF-SCS-MP2 Energies <==================
	-----------------------------------------------------------
	 SCS Same-Spin Scale       =       0.3333333333333333 [-]
	 SCS Opposite-Spin Scale   =       1.2000000000000000 [-]
	 SCS Same-Spin Energy      =      -0.0167958077715892 [Eh]
	 SCS Opposite-Spin Energy  =      -0.2782926832418346 [Eh]
	 SCS Correlation Energy    =      -0.2950884910134238 [Eh]
	 SCS Total Energy          =     -40.7213196947712746 [Eh]
	-----------------------------------------------------------

  Vibration                       7                   8                   9
  Freq [cm^-1]                1257.7598           1301.8636           1481.5443
  Irrep                           A                   A                   A
  Reduced mass [u]              1.1614              1.1628              1.1831
  Force const [mDyne/A]         1.0825              1.1612              1.5301

  Vibration                       10                  11                  12
  Freq [cm^-1]                1810.3976           1958.5274           3095.2169
  Irrep                           A                   A                   A
  Reduced mass [u]              1.0276              1.0246              1.1172
  Force const [mDyne/A]         1.9845              2.3156              6.3059

  Vibration                       13                  14                  15
  Freq [cm^-1]                3144.5861           3252.9575           3581.6385
  Irrep                           A                   A                   A
  Reduced mass [u]              1.0937              1.0549              1.0291
  Force const [mDyne/A]         6.3722              6.5766              7.7784

  ==> Thermochemistry Components <==

  Entropy, S
    Electronic S            0.000 [cal/(mol K)]        0.000 [J/(mol K)]       0.00000000 [mEh/K] (multiplicity = 1)
    Translational S        34.261 [cal/(mol K)]      143.349 [J/(mol K)]       0.05459877 [mEh/K] (mol. weight = 16.0313 [u], P = 101325.00 [Pa])
    Rotational S           15.031 [cal/(mol K)]       62.889 [J/(mol K)]       0.02395325 [mEh/K] (symmetry no. = 1)
    Vibrational S           0.077 [cal/(mol K)]        0.323 [J/(mol K)]       0.00012293 [mEh/K]
  Total S                  49.369 [cal/(mol K)]      206.561 [J/(mol K)]       0.07867496 [mEh/K]
  Correction S              0.000 [cal/(mol K)]        0.000 [J/(mol K)]       0.00000000 [mEh/K]

  Constant volume heat capacity, Cv
    Electronic Cv           0.000 [cal/(mol K)]        0.000 [J/(mol K)]       0.00000000 [mEh/K]
    Translational Cv        2.981 [cal/(mol K)]       12.472 [J/(mol K)]       0.00475022 [mEh/K]
    Rotational Cv           2.981 [cal/(mol K)]       12.472 [J/(mol K)]       0.00475022 [mEh/K]
    Vibrational Cv          0.436 [cal/(mol K)]        1.823 [J/(mol K)]       0.00069443 [mEh/K]
  Total Cv                  6.397 [cal/(mol K)]       26.767 [J/(mol K)]       0.01019486 [mEh/K]
  Correction Cv             0.000 [cal/(mol K)]        0.000 [J/(mol K)]       0.00000000 [mEh/K]

  Constant pressure heat capacity, Cp
    Electronic Cp           0.000 [cal/(mol K)]        0.000 [J/(mol K)]       0.00000000 [mEh/K]
    Translational Cp        4.968 [cal/(mol K)]       20.786 [J/(mol K)]       0.00791703 [mEh/K]
    Rotational Cp           2.981 [cal/(mol K)]       12.472 [J/(mol K)]       0.00475022 [mEh/K]
    Vibrational Cp          0.436 [cal/(mol K)]        1.823 [J/(mol K)]       0.00069443 [mEh/K]
  Total Cp                  8.385 [cal/(mol K)]       35.081 [J/(mol K)]       0.01336167 [mEh/K]
  Correction Cp             0.000 [cal/(mol K)]        0.000 [J/(mol K)]       0.00000000 [mEh/K]

  ==> Thermochemistry Energy Analysis <==

  Raw electronic energy, E0
  Total E0, Electronic energy at well bottom at 0 [K]                  -40.50246006 [Eh]

  Zero-point energy, ZPE_vib = Sum_i nu_i / 2
    Electronic ZPE          0.000 [kcal/mol]        0.000 [kJ/mol]       0.00000000 [Eh]
    Translational ZPE       0.000 [kcal/mol]        0.000 [kJ/mol]       0.00000000 [Eh]
    Rotational ZPE          0.000 [kcal/mol]        0.000 [kJ/mol]       0.00000000 [Eh]
    Vibrational ZPE        29.856 [kcal/mol]      124.917 [kJ/mol]       0.04757837 [Eh]       10442.246 [cm^-1]
  Correction ZPE           29.856 [kcal/mol]      124.917 [kJ/mol]       0.04757837 [Eh]       10442.246 [cm^-1]
  Total ZPE, Electronic energy at 0 [K]                                -40.45488168 [Eh]

  Thermal Energy, E (includes ZPE)
    Electronic E            0.000 [kcal/mol]        0.000 [kJ/mol]       0.00000000 [Eh]
    Translational E         0.889 [kcal/mol]        3.718 [kJ/mol]       0.00141628 [Eh]
    Rotational E            0.889 [kcal/mol]        3.718 [kJ/mol]       0.00141628 [Eh]
    Vibrational E          29.876 [kcal/mol]      125.000 [kJ/mol]       0.04761010 [Eh]
  Correction E             31.653 [kcal/mol]      132.437 [kJ/mol]       0.05044266 [Eh]
  Total E, Electronic energy at  298.15 [K]                            -40.45201740 [Eh]

  Enthalpy, H_trans = E_trans + k_B * T
    Electronic H            0.000 [kcal/mol]        0.000 [kJ/mol]       0.00000000 [Eh]
    Translational H         1.481 [kcal/mol]        6.197 [kJ/mol]       0.00236046 [Eh]
    Rotational H            0.889 [kcal/mol]        3.718 [kJ/mol]       0.00141628 [Eh]
    Vibrational H          29.876 [kcal/mol]      125.000 [kJ/mol]       0.04761010 [Eh]
  Correction H             32.246 [kcal/mol]      134.916 [kJ/mol]       0.05138684 [Eh]
  Total H, Enthalpy at  298.15 [K]                                     -40.45107321 [Eh]

  Gibbs free energy, G = H - T * S
    Electronic G            0.000 [kcal/mol]        0.000 [kJ/mol]       0.00000000 [Eh]
    Translational G        -8.734 [kcal/mol]      -36.542 [kJ/mol]      -0.01391816 [Eh]
    Rotational G           -3.593 [kcal/mol]      -15.032 [kJ/mol]      -0.00572539 [Eh]
    Vibrational G          29.853 [kcal/mol]      124.904 [kJ/mol]       0.04757345 [Eh]
  Correction G             17.526 [kcal/mol]       73.330 [kJ/mol]       0.02792990 [Eh]
  Total G, Free enthalpy at  298.15 [K]                                -40.47453015 [Eh]

*** Psi4 exiting successfully. Buy a developer a beer!
