                               Psi4 1.3.2 release

  ==> Input File <==

--------------------------------------------------------------------------
memory 144 GB

molecule {
0 1
B 0.0000000000 0.0000000000 0.0000000000
H 0.0000000000 0.0000000000 1.1899000000
H 1.0304836280 0.0000000000 -0.5949500000
H -1.0304836280 -0.0000000000 -0.5949500000
}

set dynamic_level 1
set basis cc-pV(T+d)Z

optimize("wB97M-V")
frequencies("wB97M-V")
--------------------------------------------------------------------------

    Molecular point group: c2v
  Charge       = 0
  Multiplicity = 1
  Basis Set: CC-PV(T+D)Z
    Blend: CC-PV(T+D)Z
  Basis Set: (CC-PV(T+D)Z AUX)
    Blend: CC-PVTZ-JKFIT
  @DF-RKS Final Energy:   -26.58361166540614
    Total Energy =                        -26.5836116654061385
    Molecular point group: c2v
  Basis Set: CC-PV(T+D)Z
    Blend: CC-PV(T+D)Z
  Basis Set: (CC-PV(T+D)Z AUX)
    Blend: CC-PVTZ-JKFIT
  @DF-RKS Final Energy:   -26.58360952330997
    Total Energy =                        -26.5836095233099705
  Basis Set: CC-PV(T+D)Z
    Blend: CC-PV(T+D)Z
  Basis Set: (CC-PV(T+D)Z AUX)
    Blend: CC-PVTZ-JKFIT
  @DF-RKS Final Energy:   -26.58360948233375
    Total Energy =                        -26.5836094823337454
  Basis Set: CC-PV(T+D)Z
    Blend: CC-PV(T+D)Z
  Basis Set: (CC-PV(T+D)Z AUX)
    Blend: CC-PVTZ-JKFIT
  @DF-RKS Final Energy:   -26.58362068345130
    Total Energy =                        -26.5836206834512971
  @DF-RKS Final Energy:   -26.58359760359622
    Total Energy =                        -26.5835976035962211
  @DF-RKS Final Energy:   -26.58362067597088
    Total Energy =                        -26.5836206759708737
  @DF-RKS Final Energy:   -26.58359761141712
    Total Energy =                        -26.5835976114171189
  @DF-RKS Final Energy:   -26.58363297841525
    Total Energy =                        -26.5836329784152561
  @DF-RKS Final Energy:   -26.58363078940508
    Total Energy =                        -26.5836307894050776
  @DF-RKS Final Energy:   -26.58363077338980
    Total Energy =                        -26.5836307733897996
  @DF-RKS Final Energy:   -26.58363048070545
    Total Energy =                        -26.5836304807054518
  @DF-RKS Final Energy:   -26.58363034475867
    Total Energy =                        -26.5836303447586673
  @DF-RKS Final Energy:   -26.58363047473773
    Total Energy =                        -26.5836304747377277
  @DF-RKS Final Energy:   -26.58363035080312
    Total Energy =                        -26.5836303508031229
  **** Optimization is complete! (in 2 steps) ****
    Final optimized geometry and variables:
  @DF-RKS Final Energy:   -26.58363297837766
    Total Energy =                        -26.5836329783776577
  @DF-RKS Final Energy:   -26.58363078935482
    Total Energy =                        -26.5836307893548174
  @DF-RKS Final Energy:   -26.58363077339245
    Total Energy =                        -26.5836307733924500
  @DF-RKS Final Energy:   -26.58363048069362
    Total Energy =                        -26.5836304806936177
  @DF-RKS Final Energy:   -26.58363034472805
    Total Energy =                        -26.5836303447280464
  @DF-RKS Final Energy:   -26.58363047470092
    Total Energy =                        -26.5836304747009216
  @DF-RKS Final Energy:   -26.58363035078073
    Total Energy =                        -26.5836303507807337
  @DF-RKS Final Energy:   -26.58363297837769
    Total Energy =                        -26.5836329783776932
  @DF-RKS Final Energy:   -26.58363078935485
    Total Energy =                        -26.5836307893548529
  @DF-RKS Final Energy:   -26.58363077339246
    Total Energy =                        -26.5836307733924642
  @DF-RKS Final Energy:   -26.58363048069363
    Total Energy =                        -26.5836304806936283
  @DF-RKS Final Energy:   -26.58363034472810
    Total Energy =                        -26.5836303447280997
  @DF-RKS Final Energy:   -26.58363047470093
    Total Energy =                        -26.5836304747009322
  @DF-RKS Final Energy:   -26.58363035078074
    Total Energy =                        -26.5836303507807372
  @DF-RKS Final Energy:   -26.58363010704832
    Total Energy =                        -26.5836301070483181
  @DF-RKS Final Energy:   -26.58363026494795
    Total Energy =                        -26.5836302649479492
  @DF-RKS Final Energy:   -26.58362619104286
    Total Energy =                        -26.5836261910428568
  @DF-RKS Final Energy:   -26.58362629921902
    Total Energy =                        -26.5836262992190271
  @DF-RKS Final Energy:   -26.58362652690892
    Total Energy =                        -26.5836265269089189
  @DF-RKS Final Energy:   -26.58362676971901
    Total Energy =                        -26.5836267697190110
  @DF-RKS Final Energy:   -26.58363078122325
    Total Energy =                        -26.5836307812232491
  Basis Set: CC-PV(T+D)Z
    Blend: CC-PV(T+D)Z
  Basis Set: (CC-PV(T+D)Z AUX)
    Blend: CC-PVTZ-JKFIT
  @DF-RKS Final Energy:   -26.58363104681298
    Total Energy =                        -26.5836310468129788
  Basis Set: CC-PV(T+D)Z
    Blend: CC-PV(T+D)Z
  Basis Set: (CC-PV(T+D)Z AUX)
    Blend: CC-PVTZ-JKFIT
  @DF-RKS Final Energy:   -26.58362606147565
    Total Energy =                        -26.5836260614756519
  Multiplicity = 1
  Basis Set: CC-PV(T+D)Z
    Blend: CC-PV(T+D)Z
  Basis Set: (CC-PV(T+D)Z AUX)
    Blend: CC-PVTZ-JKFIT
  @DF-RKS Final Energy:   -26.58362606148103
    Total Energy =                        -26.5836260614810342
    Molecular point group: cs

    Geometry (in Angstrom), charge = 0, multiplicity = 1:

       Center              X                  Y                   Z               Mass
    ------------   -----------------  -----------------  -----------------  -----------------
         B            0.000000000000    -0.000370145531    -0.000001965069    11.009305360000
         H            0.000000000000     0.001347781072     1.185964402547     1.007825032230
         H            1.027079577329     0.001347812167    -0.592971468240     1.007825032230
         H           -1.027079577329     0.001347812167    -0.592971468240     1.007825032230

  Charge       = 0
  Multiplicity = 1
  Basis Set: CC-PV(T+D)Z
    Blend: CC-PV(T+D)Z
  Basis Set: (CC-PV(T+D)Z AUX)
    Blend: CC-PVTZ-JKFIT

    Orbital Energies [Eh]
    ---------------------

    Doubly Occupied:

       1Ap    -6.918320     2Ap    -0.627778     1App   -0.453134
       3Ap    -0.453130

  @DF-RKS Final Energy:   -26.58363235084690

   => Energetics <=

    Nuclear Repulsion Energy =              7.4658395342699064
    One-Electron Energy =                 -49.1358038692342873
    Two-Electron Energy =                  18.4178973075035053
    DFT Exchange-Correlation Energy =      -3.3653995365598455
    Empirical Dispersion Energy =           0.0000000000000000
    VV10 Nonlocal Energy =                  0.0338342131738235
    Total Energy =                        -26.5836323508469015

  Dipole Moment: [D]
     X:     0.0000      Y:    -0.0038      Z:    -0.0000     Total:     0.0038

  Vibration                       7                   8                   9
  Freq [cm^-1]                1151.7727           1184.7314           1202.0850
  Irrep                           B2                  B1                  A1
  Reduced mass [u]              1.2531              1.1058              1.1072
  Force const [mDyne/A]         0.9794              0.9144              0.9427

  Vibration                       10                  11                  12
  Freq [cm^-1]                2586.6538           2706.3618           2712.1995
  Irrep                           A1                  B1                  A1
  Reduced mass [u]              1.0078              1.1288              1.1272
  Force const [mDyne/A]         3.9729              4.8711              4.8855

  ==> Thermochemistry Components <==

  Entropy, S
    Electronic S            0.000 [cal/(mol K)]        0.000 [J/(mol K)]       0.00000000 [mEh/K] (multiplicity = 1)
    Translational S        33.864 [cal/(mol K)]      141.688 [J/(mol K)]       0.05396630 [mEh/K] (mol. weight = 14.0328 [u], P = 101325.00 [Pa])
    Rotational S           13.157 [cal/(mol K)]       55.049 [J/(mol K)]       0.02096697 [mEh/K] (symmetry no. = 2)
    Vibrational S           0.136 [cal/(mol K)]        0.568 [J/(mol K)]       0.00021623 [mEh/K]
  Total S                  47.157 [cal/(mol K)]      197.305 [J/(mol K)]       0.07514949 [mEh/K]
  Correction S              0.000 [cal/(mol K)]        0.000 [J/(mol K)]       0.00000000 [mEh/K]

  Constant volume heat capacity, Cv
    Electronic Cv           0.000 [cal/(mol K)]        0.000 [J/(mol K)]       0.00000000 [mEh/K]
    Translational Cv        2.981 [cal/(mol K)]       12.472 [J/(mol K)]       0.00475022 [mEh/K]
    Rotational Cv           2.981 [cal/(mol K)]       12.472 [J/(mol K)]       0.00475022 [mEh/K]
    Vibrational Cv          0.660 [cal/(mol K)]        2.760 [J/(mol K)]       0.00105132 [mEh/K]
  Total Cv                  6.621 [cal/(mol K)]       27.704 [J/(mol K)]       0.01055176 [mEh/K]
  Correction Cv             0.000 [cal/(mol K)]        0.000 [J/(mol K)]       0.00000000 [mEh/K]

  Constant pressure heat capacity, Cp
    Electronic Cp           0.000 [cal/(mol K)]        0.000 [J/(mol K)]       0.00000000 [mEh/K]
    Translational Cp        4.968 [cal/(mol K)]       20.786 [J/(mol K)]       0.00791703 [mEh/K]
    Rotational Cp           2.981 [cal/(mol K)]       12.472 [J/(mol K)]       0.00475022 [mEh/K]
    Vibrational Cp          0.660 [cal/(mol K)]        2.760 [J/(mol K)]       0.00105132 [mEh/K]
  Total Cp                  8.609 [cal/(mol K)]       36.018 [J/(mol K)]       0.01371857 [mEh/K]
  Correction Cp             0.000 [cal/(mol K)]        0.000 [J/(mol K)]       0.00000000 [mEh/K]

  ==> Thermochemistry Energy Analysis <==

  Raw electronic energy, E0
  Total E0, Electronic energy at well bottom at 0 [K]                  -26.58363298 [Eh]

  Zero-point energy, ZPE_vib = Sum_i nu_i / 2
    Electronic ZPE          0.000 [kcal/mol]        0.000 [kJ/mol]       0.00000000 [Eh]
    Translational ZPE       0.000 [kcal/mol]        0.000 [kJ/mol]       0.00000000 [Eh]
    Rotational ZPE          0.000 [kcal/mol]        0.000 [kJ/mol]       0.00000000 [Eh]
    Vibrational ZPE        16.503 [kcal/mol]       69.047 [kJ/mol]       0.02629872 [Eh]        5771.902 [cm^-1]
  Correction ZPE           16.503 [kcal/mol]       69.047 [kJ/mol]       0.02629872 [Eh]        5771.902 [cm^-1]
  Total ZPE, Electronic energy at 0 [K]                                -26.55733426 [Eh]

  Thermal Energy, E (includes ZPE)
    Electronic E            0.000 [kcal/mol]        0.000 [kJ/mol]       0.00000000 [Eh]
    Translational E         0.889 [kcal/mol]        3.718 [kJ/mol]       0.00141628 [Eh]
    Rotational E            0.889 [kcal/mol]        3.718 [kJ/mol]       0.00141628 [Eh]
    Vibrational E          16.537 [kcal/mol]       69.191 [kJ/mol]       0.02635356 [Eh]
  Correction E             18.315 [kcal/mol]       76.628 [kJ/mol]       0.02918612 [Eh]
  Total E, Electronic energy at  298.15 [K]                            -26.55444686 [Eh]

  Enthalpy, H_trans = E_trans + k_B * T
    Electronic H            0.000 [kcal/mol]        0.000 [kJ/mol]       0.00000000 [Eh]
    Translational H         1.481 [kcal/mol]        6.197 [kJ/mol]       0.00236046 [Eh]
    Rotational H            0.889 [kcal/mol]        3.718 [kJ/mol]       0.00141628 [Eh]
    Vibrational H          16.537 [kcal/mol]       69.191 [kJ/mol]       0.02635356 [Eh]
  Correction H             18.907 [kcal/mol]       79.107 [kJ/mol]       0.03013030 [Eh]
  Total H, Enthalpy at  298.15 [K]                                     -26.55350268 [Eh]

  Gibbs free energy, G = H - T * S
    Electronic G            0.000 [kcal/mol]        0.000 [kJ/mol]       0.00000000 [Eh]
    Translational G        -8.615 [kcal/mol]      -36.047 [kJ/mol]      -0.01372959 [Eh]
    Rotational G           -3.034 [kcal/mol]      -12.694 [kJ/mol]      -0.00483502 [Eh]
    Vibrational G          16.497 [kcal/mol]       69.022 [kJ/mol]       0.02628909 [Eh]
  Correction G              4.847 [kcal/mol]       20.281 [kJ/mol]       0.00772448 [Eh]
  Total G, Free enthalpy at  298.15 [K]                                -26.57590850 [Eh]

*** Psi4 exiting successfully. Buy a developer a beer!
