                               Psi4 1.3.2 release

  ==> Input File <==

--------------------------------------------------------------------------
memory 144 GB

molecule {
0 1
C 0.0000000000 0.0000000000 0.0000000000
C 0.0000000000 0.0000000000 1.2065000000
H 0.0000000000 -0.0000000000 2.2699000000
H -0.0000000000 -0.0000000000 -1.0634000000
}

set dynamic_level 1
set basis cc-pV(T+d)Z

optimize("wB97M-V")
frequencies("wB97M-V")
--------------------------------------------------------------------------

    Molecular point group: d2h
  Charge       = 0
  Multiplicity = 1
  Basis Set: CC-PV(T+D)Z
    Blend: CC-PV(T+D)Z
  Basis Set: (CC-PV(T+D)Z AUX)
    Blend: CC-PVTZ-JKFIT
  @DF-RKS Final Energy:   -77.32230853082068
    Total Energy =                        -77.3223085308206777
    Molecular point group: d2h
  Basis Set: CC-PV(T+D)Z
    Blend: CC-PV(T+D)Z
  Basis Set: (CC-PV(T+D)Z AUX)
    Blend: CC-PVTZ-JKFIT
  @DF-RKS Final Energy:   -77.32225823556327
    Total Energy =                        -77.3222582355632539
  Basis Set: CC-PV(T+D)Z
    Blend: CC-PV(T+D)Z
  Basis Set: (CC-PV(T+D)Z AUX)
    Blend: CC-PVTZ-JKFIT
  @DF-RKS Final Energy:   -77.32235343819318
    Total Energy =                        -77.3223534381931756
  Basis Set: CC-PV(T+D)Z
    Blend: CC-PV(T+D)Z
  Basis Set: (CC-PV(T+D)Z AUX)
    Blend: CC-PVTZ-JKFIT
  @DF-RKS Final Energy:   -77.32231266779385
    Total Energy =                        -77.3223126677938524
  @DF-RKS Final Energy:   -77.32229423892005
    Total Energy =                        -77.3222942389200512
  @DF-RKS Final Energy:   -77.32258782811090
    Total Energy =                        -77.3225878281108834
  @DF-RKS Final Energy:   -77.32258980357820
    Total Energy =                        -77.3225898035781825
  @DF-RKS Final Energy:   -77.32258011304214
    Total Energy =                        -77.3225801130421360
  @DF-RKS Final Energy:   -77.32258326044776
    Total Energy =                        -77.3225832604477574
  @DF-RKS Final Energy:   -77.32258213536822
    Total Energy =                        -77.3225821353682363
  @DF-RKS Final Energy:   -77.32259010430533
    Total Energy =                        -77.3225901043053341
  @DF-RKS Final Energy:   -77.32258705679749
    Total Energy =                        -77.3225870567974738
  @DF-RKS Final Energy:   -77.32258745338997
    Total Energy =                        -77.3225874533899713
  @DF-RKS Final Energy:   -77.32258486431796
    Total Energy =                        -77.3225848643179603
  @DF-RKS Final Energy:   -77.32258509047807
    Total Energy =                        -77.3225850904780714
  **** Optimization is complete! (in 3 steps) ****
    Final optimized geometry and variables:
  @DF-RKS Final Energy:   -77.32259010430523
    Total Energy =                        -77.3225901043052346
  @DF-RKS Final Energy:   -77.32258705679747
    Total Energy =                        -77.3225870567974738
  @DF-RKS Final Energy:   -77.32258745339003
    Total Energy =                        -77.3225874533900281
  @DF-RKS Final Energy:   -77.32258486431802
    Total Energy =                        -77.3225848643180314
  @DF-RKS Final Energy:   -77.32258509047810
    Total Energy =                        -77.3225850904780998
  @DF-RKS Final Energy:   -77.32259010430519
    Total Energy =                        -77.3225901043051920
  @DF-RKS Final Energy:   -77.32258705679757
    Total Energy =                        -77.3225870567975875
  @DF-RKS Final Energy:   -77.32258745339000
    Total Energy =                        -77.3225874533899997
  @DF-RKS Final Energy:   -77.32258486431799
    Total Energy =                        -77.3225848643180029
  @DF-RKS Final Energy:   -77.32258509047807
    Total Energy =                        -77.3225850904780714
  @DF-RKS Final Energy:   -77.32257937521291
    Total Energy =                        -77.3225793752129107
  @DF-RKS Final Energy:   -77.32257871207251
    Total Energy =                        -77.3225787120725130
  @DF-RKS Final Energy:   -77.32258988151933
    Total Energy =                        -77.3225898815193347
  Basis Set: CC-PV(T+D)Z
    Blend: CC-PV(T+D)Z
  Basis Set: (CC-PV(T+D)Z AUX)
    Blend: CC-PVTZ-JKFIT
  @DF-RKS Final Energy:   -77.32258988182254
    Total Energy =                        -77.3225898818225374
  Basis Set: CC-PV(T+D)Z
    Blend: CC-PV(T+D)Z
  Basis Set: (CC-PV(T+D)Z AUX)
    Blend: CC-PVTZ-JKFIT
  @DF-RKS Final Energy:   -77.32258456128304
    Total Energy =                        -77.3225845612830227
  Multiplicity = 1
  Basis Set: CC-PV(T+D)Z
    Blend: CC-PV(T+D)Z
  Basis Set: (CC-PV(T+D)Z AUX)
    Blend: CC-PVTZ-JKFIT
  @DF-RKS Final Energy:   -77.32258982801456
    Total Energy =                        -77.3225898280145429
    Molecular point group: c2v

    Geometry (in Angstrom), charge = 0, multiplicity = 1:

       Center              X                  Y                   Z               Mass
    ------------   -----------------  -----------------  -----------------  -----------------
         C           -0.000150333491     0.000000000000    -0.597386946404    12.000000000000
         C           -0.000150333491     0.000000000000     0.597386946404    12.000000000000
         H            0.001789995126     0.000000000000     1.658869222877     1.007825032230
         H            0.001789995126    -0.000000000000    -1.658869222877     1.007825032230

  Charge       = 0
  Multiplicity = 1
  Basis Set: CC-PV(T+D)Z
    Blend: CC-PV(T+D)Z
  Basis Set: (CC-PV(T+D)Z AUX)
    Blend: CC-PVTZ-JKFIT

    Orbital Energies [Eh]
    ---------------------

    Doubly Occupied:

       1A1   -10.349096     1B2   -10.346541     2A1    -0.876253
       2B2    -0.676719     3A1    -0.602179     1B1    -0.394020
       4A1    -0.394020

  @DF-RKS Final Energy:   -77.32258982809873

   => Energetics <=

    Nuclear Repulsion Energy =             24.9010182007074512
    One-Electron Energy =                -152.1598283380798762
    Two-Electron Energy =                  57.9172036778757686
    DFT Exchange-Correlation Energy =      -8.0387034816765528
    Empirical Dispersion Energy =           0.0000000000000000
    VV10 Nonlocal Energy =                  0.0577201130744774
    Total Energy =                        -77.3225898280987280

  Dipole Moment: [D]
     X:     0.0040      Y:    -0.0000      Z:    -0.0000     Total:     0.0040

  Vibration                       6                   7                   8
  Freq [cm^-1]                 685.7998            686.2669            764.1281
  Irrep                          B3g                 B2g                 B3u
  Reduced mass [u]              1.5749              1.5749              1.0848
  Force const [mDyne/A]         0.4364              0.4370              0.3732

  Vibration                       9                   10                  11
  Freq [cm^-1]                 764.2446           2092.3133           3423.1236
  Irrep                          B2u                  Ag                 B1u
  Reduced mass [u]              1.0848              3.7337              1.0848
  Force const [mDyne/A]         0.3733              9.6304              7.4895

  Vibration                       12
  Freq [cm^-1]                3533.1982
  Irrep                           Ag
  Reduced mass [u]              1.2380
  Force const [mDyne/A]         9.1057

  ==> Thermochemistry Components <==

  Entropy, S
    Electronic S            0.000 [cal/(mol K)]        0.000 [J/(mol K)]       0.00000000 [mEh/K] (multiplicity = 1)
    Translational S        35.704 [cal/(mol K)]      149.387 [J/(mol K)]       0.05689862 [mEh/K] (mol. weight = 26.0157 [u], P = 101325.00 [Pa])
    Rotational S           10.856 [cal/(mol K)]       45.421 [J/(mol K)]       0.01729983 [mEh/K] (symmetry no. = 2)
    Vibrational S           1.124 [cal/(mol K)]        4.703 [J/(mol K)]       0.00179128 [mEh/K]
  Total S                  47.684 [cal/(mol K)]      199.511 [J/(mol K)]       0.07598972 [mEh/K]
  Correction S              0.000 [cal/(mol K)]        0.000 [J/(mol K)]       0.00000000 [mEh/K]

  Constant volume heat capacity, Cv
    Electronic Cv           0.000 [cal/(mol K)]        0.000 [J/(mol K)]       0.00000000 [mEh/K]
    Translational Cv        2.981 [cal/(mol K)]       12.472 [J/(mol K)]       0.00475022 [mEh/K]
    Rotational Cv           1.987 [cal/(mol K)]        8.314 [J/(mol K)]       0.00316681 [mEh/K]
    Vibrational Cv          3.144 [cal/(mol K)]       13.154 [J/(mol K)]       0.00501021 [mEh/K]
  Total Cv                  8.112 [cal/(mol K)]       33.940 [J/(mol K)]       0.01292724 [mEh/K]
  Correction Cv             0.000 [cal/(mol K)]        0.000 [J/(mol K)]       0.00000000 [mEh/K]

  Constant pressure heat capacity, Cp
    Electronic Cp           0.000 [cal/(mol K)]        0.000 [J/(mol K)]       0.00000000 [mEh/K]
    Translational Cp        4.968 [cal/(mol K)]       20.786 [J/(mol K)]       0.00791703 [mEh/K]
    Rotational Cp           1.987 [cal/(mol K)]        8.314 [J/(mol K)]       0.00316681 [mEh/K]
    Vibrational Cp          3.144 [cal/(mol K)]       13.154 [J/(mol K)]       0.00501021 [mEh/K]
  Total Cp                 10.099 [cal/(mol K)]       42.255 [J/(mol K)]       0.01609405 [mEh/K]
  Correction Cp             0.000 [cal/(mol K)]        0.000 [J/(mol K)]       0.00000000 [mEh/K]

  ==> Thermochemistry Energy Analysis <==

  Raw electronic energy, E0
  Total E0, Electronic energy at well bottom at 0 [K]                  -77.32259010 [Eh]

  Zero-point energy, ZPE_vib = Sum_i nu_i / 2
    Electronic ZPE          0.000 [kcal/mol]        0.000 [kJ/mol]       0.00000000 [Eh]
    Translational ZPE       0.000 [kcal/mol]        0.000 [kJ/mol]       0.00000000 [Eh]
    Rotational ZPE          0.000 [kcal/mol]        0.000 [kJ/mol]       0.00000000 [Eh]
    Vibrational ZPE        17.082 [kcal/mol]       71.471 [kJ/mol]       0.02722199 [Eh]        5974.537 [cm^-1]
  Correction ZPE           17.082 [kcal/mol]       71.471 [kJ/mol]       0.02722199 [Eh]        5974.537 [cm^-1]
  Total ZPE, Electronic energy at 0 [K]                                -77.29536811 [Eh]

  Thermal Energy, E (includes ZPE)
    Electronic E            0.000 [kcal/mol]        0.000 [kJ/mol]       0.00000000 [Eh]
    Translational E         0.889 [kcal/mol]        3.718 [kJ/mol]       0.00141628 [Eh]
    Rotational E            0.592 [kcal/mol]        2.479 [kJ/mol]       0.00094418 [Eh]
    Vibrational E          17.343 [kcal/mol]       72.563 [kJ/mol]       0.02763795 [Eh]
  Correction E             18.824 [kcal/mol]       78.761 [kJ/mol]       0.02999842 [Eh]
  Total E, Electronic energy at  298.15 [K]                            -77.29259169 [Eh]

  Enthalpy, H_trans = E_trans + k_B * T
    Electronic H            0.000 [kcal/mol]        0.000 [kJ/mol]       0.00000000 [Eh]
    Translational H         1.481 [kcal/mol]        6.197 [kJ/mol]       0.00236046 [Eh]
    Rotational H            0.592 [kcal/mol]        2.479 [kJ/mol]       0.00094418 [Eh]
    Vibrational H          17.343 [kcal/mol]       72.563 [kJ/mol]       0.02763795 [Eh]
  Correction H             19.417 [kcal/mol]       81.240 [kJ/mol]       0.03094260 [Eh]
  Total H, Enthalpy at  298.15 [K]                                     -77.29164750 [Eh]

  Gibbs free energy, G = H - T * S
    Electronic G            0.000 [kcal/mol]        0.000 [kJ/mol]       0.00000000 [Eh]
    Translational G        -9.164 [kcal/mol]      -38.342 [kJ/mol]      -0.01460386 [Eh]
    Rotational G           -2.644 [kcal/mol]      -11.063 [kJ/mol]      -0.00421376 [Eh]
    Vibrational G          17.008 [kcal/mol]       71.161 [kJ/mol]       0.02710388 [Eh]
  Correction G              5.200 [kcal/mol]       21.756 [kJ/mol]       0.00828627 [Eh]
  Total G, Free enthalpy at  298.15 [K]                                -77.31430384 [Eh]

*** Psi4 exiting successfully. Buy a developer a beer!
