                               Psi4 1.3.2 release

  ==> Input File <==

--------------------------------------------------------------------------
memory 144 GB

molecule {
0 1
C 0.0000000000 0.0000000000 0.0000000000
C 0.0000000000 0.0000000000 1.3342000000
H 0.9234041342 0.0000000000 1.8987335198
H -0.9234041342 0.0000000000 1.8987335198
H 0.9234041342 0.0000000000 -0.5645335198
H -0.9234041342 -0.0000000000 -0.5645335198
}

set dynamic_level 1
set basis cc-pV(T+d)Z

optimize("wB97M-V")
frequencies("wB97M-V")
--------------------------------------------------------------------------

    Molecular point group: d2h
  Charge       = 0
  Multiplicity = 1
  Basis Set: CC-PV(T+D)Z
    Blend: CC-PV(T+D)Z
  Basis Set: (CC-PV(T+D)Z AUX)
    Blend: CC-PVTZ-JKFIT
  @DF-RKS Final Energy:   -78.56522550930265
    Total Energy =                        -78.5652255093026639
    Molecular point group: d2h
  Basis Set: CC-PV(T+D)Z
    Blend: CC-PV(T+D)Z
  Basis Set: (CC-PV(T+D)Z AUX)
    Blend: CC-PVTZ-JKFIT
  @DF-RKS Final Energy:   -78.56519550786660
    Total Energy =                        -78.5651955078666049
  Basis Set: CC-PV(T+D)Z
    Blend: CC-PV(T+D)Z
  Basis Set: (CC-PV(T+D)Z AUX)
    Blend: CC-PVTZ-JKFIT
  @DF-RKS Final Energy:   -78.56525260360787
    Total Energy =                        -78.5652526036078740
  Basis Set: CC-PV(T+D)Z
    Blend: CC-PV(T+D)Z
  Basis Set: (CC-PV(T+D)Z AUX)
    Blend: CC-PVTZ-JKFIT
  @DF-RKS Final Energy:   -78.56522733662791
    Total Energy =                        -78.5652273366279275
  @DF-RKS Final Energy:   -78.56521645180345
    Total Energy =                        -78.5652164518034510
  @DF-RKS Final Energy:   -78.56522645401635
    Total Energy =                        -78.5652264540163685
  @DF-RKS Final Energy:   -78.56522086994150
    Total Energy =                        -78.5652208699414984
  @DF-RKS Final Energy:   -78.56539418241292
    Total Energy =                        -78.5653941824129163
  @DF-RKS Final Energy:   -78.56539357944807
    Total Energy =                        -78.5653935794480844
  @DF-RKS Final Energy:   -78.56539169279833
    Total Energy =                        -78.5653916927983289
  @DF-RKS Final Energy:   -78.56539112778943
    Total Energy =                        -78.5653911277894252
  @DF-RKS Final Energy:   -78.56538998221710
    Total Energy =                        -78.5653899822171127
  @DF-RKS Final Energy:   -78.56538810893997
    Total Energy =                        -78.5653881089399704
  @DF-RKS Final Energy:   -78.56539653952073
    Total Energy =                        -78.5653965395207479
  @DF-RKS Final Energy:   -78.56539863587635
    Total Energy =                        -78.5653986358763490
  @DF-RKS Final Energy:   -78.56539652998325
    Total Energy =                        -78.5653965299832464
  @DF-RKS Final Energy:   -78.56539766078110
    Total Energy =                        -78.5653976607811160
  @DF-RKS Final Energy:   -78.56539535391649
    Total Energy =                        -78.5653953539164860
  @DF-RKS Final Energy:   -78.56539467347167
    Total Energy =                        -78.5653946734717010
  @DF-RKS Final Energy:   -78.56539559726298
    Total Energy =                        -78.5653955972629774
  **** Optimization is complete! (in 4 steps) ****
    Final optimized geometry and variables:
  @DF-RKS Final Energy:   -78.56539255787636
    Total Energy =                        -78.5653925578763790
  @DF-RKS Final Energy:   -78.56539449979446
    Total Energy =                        -78.5653944997944507
  @DF-RKS Final Energy:   -78.56539436574491
    Total Energy =                        -78.5653943657448934
  @DF-RKS Final Energy:   -78.56539055198108
    Total Energy =                        -78.5653905519810820
  @DF-RKS Final Energy:   -78.56539043433877
    Total Energy =                        -78.5653904343387666
  @DF-RKS Final Energy:   -78.56539737103836
    Total Energy =                        -78.5653973710383582
  @DF-RKS Final Energy:   -78.56539503361547
    Total Energy =                        -78.5653950336154736
  @DF-RKS Final Energy:   -78.56538992679820
    Total Energy =                        -78.5653899267982041
  @DF-RKS Final Energy:   -78.56538992697526
    Total Energy =                        -78.5653899269752714
  @DF-RKS Final Energy:   -78.56539854641183
    Total Energy =                        -78.5653985464118421
  @DF-RKS Final Energy:   -78.56539847859528
    Total Energy =                        -78.5653984785952844
  @DF-RKS Final Energy:   -78.56539694960927
    Total Energy =                        -78.5653969496092657
  @DF-RKS Final Energy:   -78.56539539011166
    Total Energy =                        -78.5653953901116608
  @DF-RKS Final Energy:   -78.56539663199058
    Total Energy =                        -78.5653966319905948
  @DF-RKS Final Energy:   -78.56539663174621
    Total Energy =                        -78.5653966317461965
  @DF-RKS Final Energy:   -78.56539856037679
    Total Energy =                        -78.5653985603767921
  Basis Set: CC-PV(T+D)Z
    Blend: CC-PV(T+D)Z
  Basis Set: (CC-PV(T+D)Z AUX)
    Blend: CC-PVTZ-JKFIT
  @DF-RKS Final Energy:   -78.56539520533516
    Total Energy =                        -78.5653952053351503
  Basis Set: CC-PV(T+D)Z
    Blend: CC-PV(T+D)Z
  Basis Set: (CC-PV(T+D)Z AUX)
    Blend: CC-PVTZ-JKFIT
  @DF-RKS Final Energy:   -78.56539751734013
    Total Energy =                        -78.5653975173401165
  Multiplicity = 1
  Basis Set: CC-PV(T+D)Z
    Blend: CC-PV(T+D)Z
  Basis Set: (CC-PV(T+D)Z AUX)
    Blend: CC-PVTZ-JKFIT
  @DF-RKS Final Energy:   -78.56539774894605
    Total Energy =                        -78.5653977489460544
    Molecular point group: c2v

    Geometry (in Angstrom), charge = 0, multiplicity = 1:

       Center              X                  Y                   Z               Mass
    ------------   -----------------  -----------------  -----------------  -----------------
         C           -0.000204817217     0.000000000000    -0.660927535244    12.000000000000
         C           -0.000204817217     0.000000000000     0.660927535244    12.000000000000
         H            0.922712206402     0.000000000000     1.226075211952     1.007825032230
         H           -0.920273482883     0.000000000000     1.228710806294     1.007825032230
         H            0.922712206402     0.000000000000    -1.226075211952     1.007825032230
         H           -0.920273482883     0.000000000000    -1.228710806294     1.007825032230

  Charge       = 0
  Multiplicity = 1
  Basis Set: CC-PV(T+D)Z
    Blend: CC-PV(T+D)Z
  Basis Set: (CC-PV(T+D)Z AUX)
    Blend: CC-PVTZ-JKFIT

    Orbital Energies [Eh]
    ---------------------

    Doubly Occupied:

       1A1   -10.340786     1B2   -10.339898     2A1    -0.885095
       2B2    -0.691984     3A1    -0.577362     4A1    -0.523791
       3B2    -0.451767     1B1    -0.374193

  @DF-RKS Final Energy:   -78.56539774902964

   => Energetics <=

    Nuclear Repulsion Energy =             33.5476252201854663
    One-Electron Energy =                -170.6177522999880694
    Two-Electron Energy =                  66.8970006812861016
    DFT Exchange-Correlation Energy =      -8.4571613895920130
    Empirical Dispersion Energy =           0.0000000000000000
    VV10 Nonlocal Energy =                  0.0648900390788729
    Total Energy =                        -78.5653977490296427

  Dipole Moment: [D]
     X:    -0.0006      Y:     0.0000      Z:     0.0000     Total:     0.0006

  Vibration                       7                   8                   9
  Freq [cm^-1]                 832.1740            983.9227            998.8120
  Irrep                          B3u                 B2u                 B3g
  Reduced mass [u]              1.0424              1.1607              1.5178
  Force const [mDyne/A]         0.4253              0.6621              0.8921

  Vibration                       10                  11                  12
  Freq [cm^-1]                1068.1702           1240.9516           1382.0101
  Irrep                           Au                 B2g                  Ag
  Reduced mass [u]              1.0078              1.5260              1.1736
  Force const [mDyne/A]         0.6775              1.3846              1.3206

  Vibration                       13                  14                  15
  Freq [cm^-1]                1467.5276           1714.8917           3144.7613
  Irrep                          B1u                  Ag                 B1u
  Reduced mass [u]              1.1123              3.5055              1.0474
  Force const [mDyne/A]         1.4114              6.0740              6.1030

  Vibration                       16                  17                  18
  Freq [cm^-1]                3162.2528           3219.6171           3246.7051
  Irrep                           Ag                 B2g                 B3u
  Reduced mass [u]              1.0748              1.1146              1.1180
  Force const [mDyne/A]         6.3322              6.8075              6.9436

  ==> Thermochemistry Components <==

  Entropy, S
    Electronic S            0.000 [cal/(mol K)]        0.000 [J/(mol K)]       0.00000000 [mEh/K] (multiplicity = 1)
    Translational S        35.927 [cal/(mol K)]      150.318 [J/(mol K)]       0.05725309 [mEh/K] (mol. weight = 28.0313 [u], P = 101325.00 [Pa])
    Rotational S           15.829 [cal/(mol K)]       66.230 [J/(mol K)]       0.02522563 [mEh/K] (symmetry no. = 4)
    Vibrational S           0.520 [cal/(mol K)]        2.175 [J/(mol K)]       0.00082858 [mEh/K]
  Total S                  52.276 [cal/(mol K)]      218.723 [J/(mol K)]       0.08330730 [mEh/K]
  Correction S              0.000 [cal/(mol K)]        0.000 [J/(mol K)]       0.00000000 [mEh/K]

  Constant volume heat capacity, Cv
    Electronic Cv           0.000 [cal/(mol K)]        0.000 [J/(mol K)]       0.00000000 [mEh/K]
    Translational Cv        2.981 [cal/(mol K)]       12.472 [J/(mol K)]       0.00475022 [mEh/K]
    Rotational Cv           2.981 [cal/(mol K)]       12.472 [J/(mol K)]       0.00475022 [mEh/K]
    Vibrational Cv          2.092 [cal/(mol K)]        8.754 [J/(mol K)]       0.00333416 [mEh/K]
  Total Cv                  8.054 [cal/(mol K)]       33.697 [J/(mol K)]       0.01283460 [mEh/K]
  Correction Cv             0.000 [cal/(mol K)]        0.000 [J/(mol K)]       0.00000000 [mEh/K]

  Constant pressure heat capacity, Cp
    Electronic Cp           0.000 [cal/(mol K)]        0.000 [J/(mol K)]       0.00000000 [mEh/K]
    Translational Cp        4.968 [cal/(mol K)]       20.786 [J/(mol K)]       0.00791703 [mEh/K]
    Rotational Cp           2.981 [cal/(mol K)]       12.472 [J/(mol K)]       0.00475022 [mEh/K]
    Vibrational Cp          2.092 [cal/(mol K)]        8.754 [J/(mol K)]       0.00333416 [mEh/K]
  Total Cp                 10.041 [cal/(mol K)]       42.012 [J/(mol K)]       0.01600141 [mEh/K]
  Correction Cp             0.000 [cal/(mol K)]        0.000 [J/(mol K)]       0.00000000 [mEh/K]

  ==> Thermochemistry Energy Analysis <==

  Raw electronic energy, E0
  Total E0, Electronic energy at well bottom at 0 [K]                  -78.56539902 [Eh]

  Zero-point energy, ZPE_vib = Sum_i nu_i / 2
    Electronic ZPE          0.000 [kcal/mol]        0.000 [kJ/mol]       0.00000000 [Eh]
    Translational ZPE       0.000 [kcal/mol]        0.000 [kJ/mol]       0.00000000 [Eh]
    Rotational ZPE          0.000 [kcal/mol]        0.000 [kJ/mol]       0.00000000 [Eh]
    Vibrational ZPE        32.111 [kcal/mol]      134.351 [kJ/mol]       0.05117174 [Eh]       11230.898 [cm^-1]
  Correction ZPE           32.111 [kcal/mol]      134.351 [kJ/mol]       0.05117174 [Eh]       11230.898 [cm^-1]
  Total ZPE, Electronic energy at 0 [K]                                -78.51422728 [Eh]

  Thermal Energy, E (includes ZPE)
    Electronic E            0.000 [kcal/mol]        0.000 [kJ/mol]       0.00000000 [Eh]
    Translational E         0.889 [kcal/mol]        3.718 [kJ/mol]       0.00141628 [Eh]
    Rotational E            0.889 [kcal/mol]        3.718 [kJ/mol]       0.00141628 [Eh]
    Vibrational E          32.239 [kcal/mol]      134.887 [kJ/mol]       0.05137566 [Eh]
  Correction E             34.016 [kcal/mol]      142.324 [kJ/mol]       0.05420822 [Eh]
  Total E, Electronic energy at  298.15 [K]                            -78.51119080 [Eh]

  Enthalpy, H_trans = E_trans + k_B * T
    Electronic H            0.000 [kcal/mol]        0.000 [kJ/mol]       0.00000000 [Eh]
    Translational H         1.481 [kcal/mol]        6.197 [kJ/mol]       0.00236046 [Eh]
    Rotational H            0.889 [kcal/mol]        3.718 [kJ/mol]       0.00141628 [Eh]
    Vibrational H          32.239 [kcal/mol]      134.887 [kJ/mol]       0.05137566 [Eh]
  Correction H             34.609 [kcal/mol]      144.803 [kJ/mol]       0.05515240 [Eh]
  Total H, Enthalpy at  298.15 [K]                                     -78.51024662 [Eh]

  Gibbs free energy, G = H - T * S
    Electronic G            0.000 [kcal/mol]        0.000 [kJ/mol]       0.00000000 [Eh]
    Translational G        -9.230 [kcal/mol]      -38.620 [kJ/mol]      -0.01470955 [Eh]
    Rotational G           -3.831 [kcal/mol]      -16.028 [kJ/mol]      -0.00610474 [Eh]
    Vibrational G          32.084 [kcal/mol]      134.238 [kJ/mol]       0.05112862 [Eh]
  Correction G             19.023 [kcal/mol]       79.590 [kJ/mol]       0.03031433 [Eh]
  Total G, Free enthalpy at  298.15 [K]                                -78.53508469 [Eh]

*** Psi4 exiting successfully. Buy a developer a beer!
