                               Psi4 1.3.2 release

  ==> Input File <==

--------------------------------------------------------------------------
memory 144 GB

molecule {
0 1
C 0.0000000000 0.0000000000 0.0000000000
Cl 0.0000000000 0.0000000000 1.7182578700
Cl 1.6229007750 0.0000000000 -0.5644494507
}

set dynamic_level 1
set basis cc-pV(T+d)Z

optimize("wB97M-V")
frequencies("wB97M-V")
--------------------------------------------------------------------------

    Molecular point group: c2v
  Charge       = 0
  Multiplicity = 1
  Basis Set: CC-PV(T+D)Z
    Blend: CC-PV(T+D)Z
  Basis Set: (CC-PV(T+D)Z AUX)
    Blend: CC-PVTZ-JKFIT
  @DF-RKS Final Energy:  -958.39666714725422
    Total Energy =                       -958.3966671472542203
    Molecular point group: c2v
  Basis Set: CC-PV(T+D)Z
    Blend: CC-PV(T+D)Z
  Basis Set: (CC-PV(T+D)Z AUX)
    Blend: CC-PVTZ-JKFIT
  @DF-RKS Final Energy:  -958.39666402313514
    Total Energy =                       -958.3966640231351448
  Basis Set: CC-PV(T+D)Z
    Blend: CC-PV(T+D)Z
  Basis Set: (CC-PV(T+D)Z AUX)
    Blend: CC-PVTZ-JKFIT
  @DF-RKS Final Energy:  -958.39666979810966
    Total Energy =                       -958.3966697981096559
  Basis Set: CC-PV(T+D)Z
    Blend: CC-PV(T+D)Z
  Basis Set: (CC-PV(T+D)Z AUX)
    Blend: CC-PVTZ-JKFIT
  @DF-RKS Final Energy:  -958.39667027683242
    Total Energy =                       -958.3966702768325376
  @DF-RKS Final Energy:  -958.39666386312740
    Total Energy =                       -958.3966638631274009
  @DF-RKS Final Energy:  -958.39669231637311
    Total Energy =                       -958.3966923163731053
  @DF-RKS Final Energy:  -958.39668998250011
    Total Energy =                       -958.3966899825001065
  @DF-RKS Final Energy:  -958.39669416762501
    Total Energy =                       -958.3966941676250144
  @DF-RKS Final Energy:  -958.39669190268762
    Total Energy =                       -958.3966919026876212
  @DF-RKS Final Energy:  -958.39669256998297
    Total Energy =                       -958.3966925699829744
  @DF-RKS Final Energy:  -958.39669998094314
    Total Energy =                       -958.3966999809431400
  @DF-RKS Final Energy:  -958.39669927699867
    Total Energy =                       -958.3966992769986746
  @DF-RKS Final Energy:  -958.39670020392646
    Total Energy =                       -958.3967002039264571
  @DF-RKS Final Energy:  -958.39670000960257
    Total Energy =                       -958.3967000096025686
  @DF-RKS Final Energy:  -958.39669979378436
    Total Energy =                       -958.3966997937843644
  **** Optimization is complete! (in 3 steps) ****
    Final optimized geometry and variables:
  @DF-RKS Final Energy:  -958.39669998094371
    Total Energy =                       -958.3966999809438221
  @DF-RKS Final Energy:  -958.39669927699902
    Total Energy =                       -958.3966992769990156
  @DF-RKS Final Energy:  -958.39670020392634
    Total Energy =                       -958.3967002039263434
  @DF-RKS Final Energy:  -958.39670000960223
    Total Energy =                       -958.3967000096022275
  @DF-RKS Final Energy:  -958.39669979378482
    Total Energy =                       -958.3966997937848191
  @DF-RKS Final Energy:  -958.39669998094314
    Total Energy =                       -958.3966999809432536
  @DF-RKS Final Energy:  -958.39669927699913
    Total Energy =                       -958.3966992769991293
  @DF-RKS Final Energy:  -958.39670020392657
    Total Energy =                       -958.3967002039265708
  @DF-RKS Final Energy:  -958.39670000960268
    Total Energy =                       -958.3967000096026823
  Basis Set: CC-PV(T+D)Z
    Blend: CC-PV(T+D)Z
  Basis Set: (CC-PV(T+D)Z AUX)
    Blend: CC-PVTZ-JKFIT
  @DF-RKS Final Energy:  -958.39669979378425
    Total Energy =                       -958.3966997937841370
  Basis Set: CC-PV(T+D)Z
    Blend: CC-PV(T+D)Z
  Basis Set: (CC-PV(T+D)Z AUX)
    Blend: CC-PVTZ-JKFIT
  @DF-RKS Final Energy:  -958.39670014912690
    Total Energy =                       -958.3967001491269002
  Multiplicity = 1
  Basis Set: CC-PV(T+D)Z
    Blend: CC-PV(T+D)Z
  Basis Set: (CC-PV(T+D)Z AUX)
    Blend: CC-PVTZ-JKFIT
  @DF-RKS Final Energy:  -958.39669943758497
    Total Energy =                       -958.3966994375849708
    Molecular point group: cs

    Geometry (in Angstrom), charge = 0, multiplicity = 1:

       Center              X                  Y                   Z               Mass
    ------------   -----------------  -----------------  -----------------  -----------------
         C            0.000000000000    -0.000680674603    -0.850106706785    12.000000000000
         CL           0.000000000000     1.394153328745     0.145945825962    34.968852682000
         CL           0.000000000000    -1.393919746726     0.145778943340    34.968852682000

  Charge       = 0
  Multiplicity = 1
  Basis Set: CC-PV(T+D)Z
    Blend: CC-PV(T+D)Z
  Basis Set: (CC-PV(T+D)Z AUX)
    Blend: CC-PVTZ-JKFIT

    Orbital Energies [Eh]
    ---------------------

    Doubly Occupied:

       1Ap  -101.934641     2Ap  -101.934362     3Ap   -10.502402
       4Ap    -9.692522     5Ap    -9.692225     6Ap    -7.395908
       7Ap    -7.395616     1App   -7.391411     2App   -7.391109
       8Ap    -7.388216     9Ap    -7.387923    10Ap    -1.063280
      11Ap    -0.980367    12Ap    -0.721202    13Ap    -0.569551
      14Ap    -0.526495     3App   -0.522614     4App   -0.449028
      15Ap    -0.428169    16Ap    -0.359410

  @DF-RKS Final Energy:  -958.39669969269426

   => Energetics <=

    Nuclear Repulsion Energy =            117.8617465945386442
    One-Electron Energy =               -1555.3825433215115481
    Two-Electron Energy =                 526.4086477973555702
    DFT Exchange-Correlation Energy =     -47.4498886261362998
    Empirical Dispersion Energy =           0.0000000000000000
    VV10 Nonlocal Energy =                  0.1653378630594884
    Total Energy =                       -958.3966996926942556

  Dipole Moment: [D]
     X:     0.0000      Y:    -0.0079      Z:     1.1482     Total:     1.1482

  Vibration                       7                   8                   9
  Freq [cm^-1]                 342.9387            747.1896            780.6082
  Irrep                           A1                  A1                  B2
  Reduced mass [u]             29.5075             14.2808             13.8759
  Force const [mDyne/A]         2.0446              4.6975              4.9817

  ==> Thermochemistry Components <==

  Entropy, S
    Electronic S            0.000 [cal/(mol K)]        0.000 [J/(mol K)]       0.00000000 [mEh/K] (multiplicity = 1)
    Translational S        39.124 [cal/(mol K)]      163.696 [J/(mol K)]       0.06234835 [mEh/K] (mol. weight = 81.9377 [u], P = 101325.00 [Pa])
    Rotational S           22.356 [cal/(mol K)]       93.538 [J/(mol K)]       0.03562666 [mEh/K] (symmetry no. = 2)
    Vibrational S           1.677 [cal/(mol K)]        7.016 [J/(mol K)]       0.00267240 [mEh/K]
  Total S                  63.157 [cal/(mol K)]      264.250 [J/(mol K)]       0.10064741 [mEh/K]
  Correction S              0.000 [cal/(mol K)]        0.000 [J/(mol K)]       0.00000000 [mEh/K]

  Constant volume heat capacity, Cv
    Electronic Cv           0.000 [cal/(mol K)]        0.000 [J/(mol K)]       0.00000000 [mEh/K]
    Translational Cv        2.981 [cal/(mol K)]       12.472 [J/(mol K)]       0.00475022 [mEh/K]
    Rotational Cv           2.981 [cal/(mol K)]       12.472 [J/(mol K)]       0.00475022 [mEh/K]
    Vibrational Cv          3.015 [cal/(mol K)]       12.613 [J/(mol K)]       0.00480395 [mEh/K]
  Total Cv                  8.976 [cal/(mol K)]       37.556 [J/(mol K)]       0.01430438 [mEh/K]
  Correction Cv             0.000 [cal/(mol K)]        0.000 [J/(mol K)]       0.00000000 [mEh/K]

  Constant pressure heat capacity, Cp
    Electronic Cp           0.000 [cal/(mol K)]        0.000 [J/(mol K)]       0.00000000 [mEh/K]
    Translational Cp        4.968 [cal/(mol K)]       20.786 [J/(mol K)]       0.00791703 [mEh/K]
    Rotational Cp           2.981 [cal/(mol K)]       12.472 [J/(mol K)]       0.00475022 [mEh/K]
    Vibrational Cp          3.015 [cal/(mol K)]       12.613 [J/(mol K)]       0.00480395 [mEh/K]
  Total Cp                 10.963 [cal/(mol K)]       45.871 [J/(mol K)]       0.01747120 [mEh/K]
  Correction Cp             0.000 [cal/(mol K)]        0.000 [J/(mol K)]       0.00000000 [mEh/K]

  ==> Thermochemistry Energy Analysis <==

  Raw electronic energy, E0
  Total E0, Electronic energy at well bottom at 0 [K]                 -958.39669998 [Eh]

  Zero-point energy, ZPE_vib = Sum_i nu_i / 2
    Electronic ZPE          0.000 [kcal/mol]        0.000 [kJ/mol]       0.00000000 [Eh]
    Translational ZPE       0.000 [kcal/mol]        0.000 [kJ/mol]       0.00000000 [Eh]
    Rotational ZPE          0.000 [kcal/mol]        0.000 [kJ/mol]       0.00000000 [Eh]
    Vibrational ZPE         2.674 [kcal/mol]       11.189 [kJ/mol]       0.00426185 [Eh]         935.368 [cm^-1]
  Correction ZPE            2.674 [kcal/mol]       11.189 [kJ/mol]       0.00426185 [Eh]         935.368 [cm^-1]
  Total ZPE, Electronic energy at 0 [K]                               -958.39243813 [Eh]

  Thermal Energy, E (includes ZPE)
    Electronic E            0.000 [kcal/mol]        0.000 [kJ/mol]       0.00000000 [Eh]
    Translational E         0.889 [kcal/mol]        3.718 [kJ/mol]       0.00141628 [Eh]
    Rotational E            0.889 [kcal/mol]        3.718 [kJ/mol]       0.00141628 [Eh]
    Vibrational E           3.018 [kcal/mol]       12.629 [kJ/mol]       0.00481028 [Eh]
  Correction E              4.796 [kcal/mol]       20.066 [kJ/mol]       0.00764283 [Eh]
  Total E, Electronic energy at  298.15 [K]                           -958.38905715 [Eh]

  Enthalpy, H_trans = E_trans + k_B * T
    Electronic H            0.000 [kcal/mol]        0.000 [kJ/mol]       0.00000000 [Eh]
    Translational H         1.481 [kcal/mol]        6.197 [kJ/mol]       0.00236046 [Eh]
    Rotational H            0.889 [kcal/mol]        3.718 [kJ/mol]       0.00141628 [Eh]
    Vibrational H           3.018 [kcal/mol]       12.629 [kJ/mol]       0.00481028 [Eh]
  Correction H              5.388 [kcal/mol]       22.545 [kJ/mol]       0.00858702 [Eh]
  Total H, Enthalpy at  298.15 [K]                                    -958.38811296 [Eh]

  Gibbs free energy, G = H - T * S
    Electronic G            0.000 [kcal/mol]        0.000 [kJ/mol]       0.00000000 [Eh]
    Translational G       -10.184 [kcal/mol]      -42.608 [kJ/mol]      -0.01622870 [Eh]
    Rotational G           -5.777 [kcal/mol]      -24.170 [kJ/mol]      -0.00920581 [Eh]
    Vibrational G           2.519 [kcal/mol]       10.537 [kJ/mol]       0.00401350 [Eh]
  Correction G            -13.442 [kcal/mol]      -56.241 [kJ/mol]      -0.02142101 [Eh]
  Total G, Free enthalpy at  298.15 [K]                               -958.41812099 [Eh]

*** Psi4 exiting successfully. Buy a developer a beer!
