                               Psi4 1.3.2 release

  ==> Input File <==

--------------------------------------------------------------------------
memory 144 GB

molecule {
0 1
C 0.0000000000 0.0000000000 0.0000000000
F 0.0000000000 0.0000000000 1.2971000000
F 1.2538059978 0.0000000000 -0.3323235319
}

set dynamic_level 1
set basis cc-pV(T+d)Z

optimize("wB97M-V")
frequencies("wB97M-V")
--------------------------------------------------------------------------

    Molecular point group: c2v
  Charge       = 0
  Multiplicity = 1
  Basis Set: CC-PV(T+D)Z
    Blend: CC-PV(T+D)Z
  Basis Set: (CC-PV(T+D)Z AUX)
    Blend: CC-PVTZ-JKFIT
  @DF-RKS Final Energy:  -237.73905215109178
    Total Energy =                       -237.7390521510917836
    Molecular point group: c2v
  Basis Set: CC-PV(T+D)Z
    Blend: CC-PV(T+D)Z
  Basis Set: (CC-PV(T+D)Z AUX)
    Blend: CC-PVTZ-JKFIT
  @DF-RKS Final Energy:  -237.73906105504886
    Total Energy =                       -237.7390610550488361
  Basis Set: CC-PV(T+D)Z
    Blend: CC-PV(T+D)Z
  Basis Set: (CC-PV(T+D)Z AUX)
    Blend: CC-PVTZ-JKFIT
  @DF-RKS Final Energy:  -237.73904188951067
    Total Energy =                       -237.7390418895106734
  Basis Set: CC-PV(T+D)Z
    Blend: CC-PV(T+D)Z
  Basis Set: (CC-PV(T+D)Z AUX)
    Blend: CC-PVTZ-JKFIT
  @DF-RKS Final Energy:  -237.73904838988454
    Total Energy =                       -237.7390483898845446
  @DF-RKS Final Energy:  -237.73905529731240
    Total Energy =                       -237.7390552973124045
  @DF-RKS Final Energy:  -237.73907918463846
    Total Energy =                       -237.7390791846384559
  @DF-RKS Final Energy:  -237.73907946761676
    Total Energy =                       -237.7390794676167616
  @DF-RKS Final Energy:  -237.73907755644115
    Total Energy =                       -237.7390775564411456
  @DF-RKS Final Energy:  -237.73907596868830
    Total Energy =                       -237.7390759686882973
  @DF-RKS Final Energy:  -237.73908178793391
    Total Energy =                       -237.7390817879339409
  @DF-RKS Final Energy:  -237.73908460338936
    Total Energy =                       -237.7390846033893865
  @DF-RKS Final Energy:  -237.73908316052541
    Total Energy =                       -237.7390831605253823
  @DF-RKS Final Energy:  -237.73908471485333
    Total Energy =                       -237.7390847148533339
  @DF-RKS Final Energy:  -237.73908581285789
    Total Energy =                       -237.7390858128578941
  @DF-RKS Final Energy:  -237.73908279361882
    Total Energy =                       -237.7390827936188202
  @DF-RKS Final Energy:  -237.73908651589943
    Total Energy =                       -237.7390865158994586
  @DF-RKS Final Energy:  -237.73908583209737
    Total Energy =                       -237.7390858320973734
  @DF-RKS Final Energy:  -237.73908586350794
    Total Energy =                       -237.7390858635079383
  @DF-RKS Final Energy:  -237.73908623152559
    Total Energy =                       -237.7390862315256186
  @DF-RKS Final Energy:  -237.73908619578427
    Total Energy =                       -237.7390861957842674
  **** Optimization is complete! (in 4 steps) ****
    Final optimized geometry and variables:
  @DF-RKS Final Energy:  -237.73908651589943
    Total Energy =                       -237.7390865158994302
  @DF-RKS Final Energy:  -237.73908583209729
    Total Energy =                       -237.7390858320972598
  @DF-RKS Final Energy:  -237.73908586350797
    Total Energy =                       -237.7390858635079667
  @DF-RKS Final Energy:  -237.73908623152536
    Total Energy =                       -237.7390862315253628
  @DF-RKS Final Energy:  -237.73908619578427
    Total Energy =                       -237.7390861957842390
  @DF-RKS Final Energy:  -237.73908651589960
    Total Energy =                       -237.7390865158995723
  @DF-RKS Final Energy:  -237.73908583209737
    Total Energy =                       -237.7390858320974019
  @DF-RKS Final Energy:  -237.73908586350808
    Total Energy =                       -237.7390858635081088
  @DF-RKS Final Energy:  -237.73908623152559
    Total Energy =                       -237.7390862315255617
  Basis Set: CC-PV(T+D)Z
    Blend: CC-PV(T+D)Z
  Basis Set: (CC-PV(T+D)Z AUX)
    Blend: CC-PVTZ-JKFIT
  @DF-RKS Final Energy:  -237.73908619578435
    Total Energy =                       -237.7390861957843242
  Basis Set: CC-PV(T+D)Z
    Blend: CC-PV(T+D)Z
  Basis Set: (CC-PV(T+D)Z AUX)
    Blend: CC-PVTZ-JKFIT
  @DF-RKS Final Energy:  -237.73908593470307
    Total Energy =                       -237.7390859347030698
  Multiplicity = 1
  Basis Set: CC-PV(T+D)Z
    Blend: CC-PV(T+D)Z
  Basis Set: (CC-PV(T+D)Z AUX)
    Blend: CC-PVTZ-JKFIT
  @DF-RKS Final Energy:  -237.73908593813144
    Total Energy =                       -237.7390859381314385
    Molecular point group: cs

    Geometry (in Angstrom), charge = 0, multiplicity = 1:

       Center              X                  Y                   Z               Mass
    ------------   -----------------  -----------------  -----------------  -----------------
         C            0.000000000000    -0.000622519339    -0.605652024428    12.000000000000
         F            0.000000000000     1.028736183567     0.191426939136    18.998403162730
         F            0.000000000000    -1.028342980412     0.191122279916    18.998403162730

  Charge       = 0
  Multiplicity = 1
  Basis Set: CC-PV(T+D)Z
    Blend: CC-PV(T+D)Z
  Basis Set: (CC-PV(T+D)Z AUX)
    Blend: CC-PVTZ-JKFIT

    Orbital Energies [Eh]
    ---------------------

    Doubly Occupied:

       1Ap   -24.981157     2Ap   -24.980492     3Ap   -10.547643
       4Ap    -1.473894     5Ap    -1.398082     6Ap    -0.828313
       7Ap    -0.715409     1App   -0.672284     8Ap    -0.667450
       2App   -0.590235     9Ap    -0.564850    10Ap    -0.411430

  @DF-RKS Final Energy:  -237.73908588885365

   => Energetics <=

    Nuclear Repulsion Energy =             64.7606414428463779
    One-Electron Energy =                -457.2729044871458655
    Two-Electron Energy =                 173.9094864545938321
    DFT Exchange-Correlation Energy =     -19.2369323575961104
    Empirical Dispersion Energy =           0.0000000000000000
    VV10 Nonlocal Energy =                  0.1006230584481393
    Total Energy =                       -237.7390858888536513

  Dipole Moment: [D]
     X:     0.0000      Y:    -0.0079      Z:     0.6252     Total:     0.6252

  Vibration                       7                   8                   9
  Freq [cm^-1]                 678.0563           1151.3277           1261.5511
  Irrep                           A1                  B2                  A1
  Reduced mass [u]             17.7527             13.6935             13.8366
  Force const [mDyne/A]         4.8089             10.6946             12.9745

  ==> Thermochemistry Components <==

  Entropy, S
    Electronic S            0.000 [cal/(mol K)]        0.000 [J/(mol K)]       0.00000000 [mEh/K] (multiplicity = 1)
    Translational S        37.652 [cal/(mol K)]      157.535 [J/(mol K)]       0.06000175 [mEh/K] (mol. weight = 49.9968 [u], P = 101325.00 [Pa])
    Rotational S           19.439 [cal/(mol K)]       81.332 [J/(mol K)]       0.03097785 [mEh/K] (symmetry no. = 2)
    Vibrational S           0.416 [cal/(mol K)]        1.739 [J/(mol K)]       0.00066253 [mEh/K]
  Total S                  57.506 [cal/(mol K)]      240.606 [J/(mol K)]       0.09164213 [mEh/K]
  Correction S              0.000 [cal/(mol K)]        0.000 [J/(mol K)]       0.00000000 [mEh/K]

  Constant volume heat capacity, Cv
    Electronic Cv           0.000 [cal/(mol K)]        0.000 [J/(mol K)]       0.00000000 [mEh/K]
    Translational Cv        2.981 [cal/(mol K)]       12.472 [J/(mol K)]       0.00475022 [mEh/K]
    Rotational Cv           2.981 [cal/(mol K)]       12.472 [J/(mol K)]       0.00475022 [mEh/K]
    Vibrational Cv          1.279 [cal/(mol K)]        5.350 [J/(mol K)]       0.00203771 [mEh/K]
  Total Cv                  7.240 [cal/(mol K)]       30.293 [J/(mol K)]       0.01153814 [mEh/K]
  Correction Cv             0.000 [cal/(mol K)]        0.000 [J/(mol K)]       0.00000000 [mEh/K]

  Constant pressure heat capacity, Cp
    Electronic Cp           0.000 [cal/(mol K)]        0.000 [J/(mol K)]       0.00000000 [mEh/K]
    Translational Cp        4.968 [cal/(mol K)]       20.786 [J/(mol K)]       0.00791703 [mEh/K]
    Rotational Cp           2.981 [cal/(mol K)]       12.472 [J/(mol K)]       0.00475022 [mEh/K]
    Vibrational Cp          1.279 [cal/(mol K)]        5.350 [J/(mol K)]       0.00203771 [mEh/K]
  Total Cp                  9.227 [cal/(mol K)]       38.608 [J/(mol K)]       0.01470495 [mEh/K]
  Correction Cp             0.000 [cal/(mol K)]        0.000 [J/(mol K)]       0.00000000 [mEh/K]

  ==> Thermochemistry Energy Analysis <==

  Raw electronic energy, E0
  Total E0, Electronic energy at well bottom at 0 [K]                 -237.73908652 [Eh]

  Zero-point energy, ZPE_vib = Sum_i nu_i / 2
    Electronic ZPE          0.000 [kcal/mol]        0.000 [kJ/mol]       0.00000000 [Eh]
    Translational ZPE       0.000 [kcal/mol]        0.000 [kJ/mol]       0.00000000 [Eh]
    Rotational ZPE          0.000 [kcal/mol]        0.000 [kJ/mol]       0.00000000 [Eh]
    Vibrational ZPE         4.419 [kcal/mol]       18.488 [kJ/mol]       0.00704167 [Eh]        1545.468 [cm^-1]
  Correction ZPE            4.419 [kcal/mol]       18.488 [kJ/mol]       0.00704167 [Eh]        1545.468 [cm^-1]
  Total ZPE, Electronic energy at 0 [K]                               -237.73204485 [Eh]

  Thermal Energy, E (includes ZPE)
    Electronic E            0.000 [kcal/mol]        0.000 [kJ/mol]       0.00000000 [Eh]
    Translational E         0.889 [kcal/mol]        3.718 [kJ/mol]       0.00141628 [Eh]
    Rotational E            0.889 [kcal/mol]        3.718 [kJ/mol]       0.00141628 [Eh]
    Vibrational E           4.516 [kcal/mol]       18.895 [kJ/mol]       0.00719689 [Eh]
  Correction E              6.294 [kcal/mol]       26.332 [kJ/mol]       0.01002945 [Eh]
  Total E, Electronic energy at  298.15 [K]                           -237.72905707 [Eh]

  Enthalpy, H_trans = E_trans + k_B * T
    Electronic H            0.000 [kcal/mol]        0.000 [kJ/mol]       0.00000000 [Eh]
    Translational H         1.481 [kcal/mol]        6.197 [kJ/mol]       0.00236046 [Eh]
    Rotational H            0.889 [kcal/mol]        3.718 [kJ/mol]       0.00141628 [Eh]
    Vibrational H           4.516 [kcal/mol]       18.895 [kJ/mol]       0.00719689 [Eh]
  Correction H              6.886 [kcal/mol]       28.811 [kJ/mol]       0.01097363 [Eh]
  Total H, Enthalpy at  298.15 [K]                                    -237.72811289 [Eh]

  Gibbs free energy, G = H - T * S
    Electronic G            0.000 [kcal/mol]        0.000 [kJ/mol]       0.00000000 [Eh]
    Translational G        -9.745 [kcal/mol]      -40.772 [kJ/mol]      -0.01552906 [Eh]
    Rotational G           -4.907 [kcal/mol]      -20.531 [kJ/mol]      -0.00781977 [Eh]
    Vibrational G           4.392 [kcal/mol]       18.377 [kJ/mol]       0.00699936 [Eh]
  Correction G            -10.259 [kcal/mol]      -42.926 [kJ/mol]      -0.01634947 [Eh]
  Total G, Free enthalpy at  298.15 [K]                               -237.75543599 [Eh]

*** Psi4 exiting successfully. Buy a developer a beer!
