                               Psi4 1.3.2 release

  ==> Input File <==

--------------------------------------------------------------------------
memory 144 GB

molecule {
0 1
Cl 0.0000000000 0.0000000000 0.0000000000
Cl 0.0000000000 0.0000000000 1.9965761200
}

set dynamic_level 1
set basis cc-pV(T+d)Z

optimize("wB97M-V")
frequencies("wB97M-V")
--------------------------------------------------------------------------

    Molecular point group: d2h
  Charge       = 0
  Multiplicity = 1
  Basis Set: CC-PV(T+D)Z
    Blend: CC-PV(T+D)Z
  Basis Set: (CC-PV(T+D)Z AUX)
    Blend: CC-PVTZ-JKFIT
  @DF-RKS Final Energy:  -920.36345823976183
    Total Energy =                       -920.3634582397619397
    Molecular point group: d2h
  Basis Set: CC-PV(T+D)Z
    Blend: CC-PV(T+D)Z
  Basis Set: (CC-PV(T+D)Z AUX)
    Blend: CC-PVTZ-JKFIT
  @DF-RKS Final Energy:  -920.36345457081188
    Total Energy =                       -920.3634545708117685
  Basis Set: CC-PV(T+D)Z
    Blend: CC-PV(T+D)Z
  Basis Set: (CC-PV(T+D)Z AUX)
    Blend: CC-PVTZ-JKFIT
  @DF-RKS Final Energy:  -920.36346159783761
    Total Energy =                       -920.3634615978376132
  Basis Set: CC-PV(T+D)Z
    Blend: CC-PV(T+D)Z
  Basis Set: (CC-PV(T+D)Z AUX)
    Blend: CC-PVTZ-JKFIT
  @DF-RKS Final Energy:  -920.36347519374181
    Total Energy =                       -920.3634751937419196
  @DF-RKS Final Energy:  -920.36347372826560
    Total Energy =                       -920.3634737282657170
  @DF-RKS Final Energy:  -920.36347634172853
    Total Energy =                       -920.3634763417284148
  @DF-RKS Final Energy:  -920.36347787189038
    Total Energy =                       -920.3634778718902680
  @DF-RKS Final Energy:  -920.36347773281784
    Total Energy =                       -920.3634777328179553
  @DF-RKS Final Energy:  -920.36347768963719
    Total Energy =                       -920.3634776896371932
  **** Optimization is complete! (in 3 steps) ****
    Final optimized geometry and variables:
  @DF-RKS Final Energy:  -920.36347787189095
    Total Energy =                       -920.3634778718909502
  @DF-RKS Final Energy:  -920.36347773281761
    Total Energy =                       -920.3634777328175005
  Basis Set: CC-PV(T+D)Z
    Blend: CC-PV(T+D)Z
  Basis Set: (CC-PV(T+D)Z AUX)
    Blend: CC-PVTZ-JKFIT
  @DF-RKS Final Energy:  -920.36347768963731
    Total Energy =                       -920.3634776896370795
  Basis Set: CC-PV(T+D)Z
    Blend: CC-PV(T+D)Z
  Basis Set: (CC-PV(T+D)Z AUX)
    Blend: CC-PVTZ-JKFIT
  @DF-RKS Final Energy:  -920.36347787189084
    Total Energy =                       -920.3634778718908365
  Multiplicity = 1
  Basis Set: CC-PV(T+D)Z
    Blend: CC-PV(T+D)Z
  Basis Set: (CC-PV(T+D)Z AUX)
    Blend: CC-PVTZ-JKFIT
  @DF-RKS Final Energy:  -920.36347773281750
    Total Energy =                       -920.3634777328176142
    Molecular point group: d2h

    Geometry (in Angstrom), charge = 0, multiplicity = 1:

       Center              X                  Y                   Z               Mass
    ------------   -----------------  -----------------  -----------------  -----------------
         CL           0.000000000000     0.000000000000    -0.994433931936    34.968852682000
         CL           0.000000000000     0.000000000000     0.994433931936    34.968852682000

  Charge       = 0
  Multiplicity = 1
  Basis Set: CC-PV(T+D)Z
    Blend: CC-PV(T+D)Z
  Basis Set: (CC-PV(T+D)Z AUX)
    Blend: CC-PVTZ-JKFIT

    Orbital Energies [Eh]
    ---------------------

    Doubly Occupied:

       1B1u -101.944528     1Ag  -101.944526     2Ag    -9.698868
       2B1u   -9.698827     3Ag    -7.406795     3B1u   -7.406661
       1B3g   -7.394125     1B2g   -7.394125     1B2u   -7.394123
       1B3u   -7.394123     4Ag    -1.058172     4B1u   -0.886358
       5Ag    -0.563751     2B2u   -0.514535     2B3u   -0.514535
       2B3g   -0.401853     2B2g   -0.401853

  @DF-RKS Final Energy:  -920.36347768963776

   => Energetics <=

    Nuclear Repulsion Energy =             76.8941047626759087
    One-Electron Energy =               -1423.1851811645290127
    Two-Electron Energy =                 469.4362510565467232
    DFT Exchange-Correlation Energy =     -43.6509648179283190
    Empirical Dispersion Energy =           0.0000000000000000
    VV10 Nonlocal Energy =                  0.1423124735969729
    Total Energy =                       -920.3634776896377616

  Dipole Moment: [D]
     X:     0.0000      Y:     0.0000      Z:    -0.0000     Total:     0.0000

  Vibration                       6
  Freq [cm^-1]                 582.7837
  Irrep                           Ag
  Reduced mass [u]             34.9689
  Force const [mDyne/A]         6.9976

  ==> Thermochemistry Components <==

  Entropy, S
    Electronic S            0.000 [cal/(mol K)]        0.000 [J/(mol K)]       0.00000000 [mEh/K] (multiplicity = 1)
    Translational S        38.652 [cal/(mol K)]      161.721 [J/(mol K)]       0.06159614 [mEh/K] (mol. weight = 69.9377 [u], P = 101325.00 [Pa])
    Rotational S           14.016 [cal/(mol K)]       58.641 [J/(mol K)]       0.02233529 [mEh/K] (symmetry no. = 2)
    Vibrational S           0.480 [cal/(mol K)]        2.009 [J/(mol K)]       0.00076530 [mEh/K]
  Total S                  53.148 [cal/(mol K)]      222.371 [J/(mol K)]       0.08469673 [mEh/K]
  Correction S              0.000 [cal/(mol K)]        0.000 [J/(mol K)]       0.00000000 [mEh/K]

  Constant volume heat capacity, Cv
    Electronic Cv           0.000 [cal/(mol K)]        0.000 [J/(mol K)]       0.00000000 [mEh/K]
    Translational Cv        2.981 [cal/(mol K)]       12.472 [J/(mol K)]       0.00475022 [mEh/K]
    Rotational Cv           1.987 [cal/(mol K)]        8.314 [J/(mol K)]       0.00316681 [mEh/K]
    Vibrational Cv          1.069 [cal/(mol K)]        4.471 [J/(mol K)]       0.00170286 [mEh/K]
  Total Cv                  6.037 [cal/(mol K)]       25.257 [J/(mol K)]       0.00961989 [mEh/K]
  Correction Cv             0.000 [cal/(mol K)]        0.000 [J/(mol K)]       0.00000000 [mEh/K]

  Constant pressure heat capacity, Cp
    Electronic Cp           0.000 [cal/(mol K)]        0.000 [J/(mol K)]       0.00000000 [mEh/K]
    Translational Cp        4.968 [cal/(mol K)]       20.786 [J/(mol K)]       0.00791703 [mEh/K]
    Rotational Cp           1.987 [cal/(mol K)]        8.314 [J/(mol K)]       0.00316681 [mEh/K]
    Vibrational Cp          1.069 [cal/(mol K)]        4.471 [J/(mol K)]       0.00170286 [mEh/K]
  Total Cp                  8.024 [cal/(mol K)]       33.571 [J/(mol K)]       0.01278670 [mEh/K]
  Correction Cp             0.000 [cal/(mol K)]        0.000 [J/(mol K)]       0.00000000 [mEh/K]

  ==> Thermochemistry Energy Analysis <==

  Raw electronic energy, E0
  Total E0, Electronic energy at well bottom at 0 [K]                 -920.36347787 [Eh]

  Zero-point energy, ZPE_vib = Sum_i nu_i / 2
    Electronic ZPE          0.000 [kcal/mol]        0.000 [kJ/mol]       0.00000000 [Eh]
    Translational ZPE       0.000 [kcal/mol]        0.000 [kJ/mol]       0.00000000 [Eh]
    Rotational ZPE          0.000 [kcal/mol]        0.000 [kJ/mol]       0.00000000 [Eh]
    Vibrational ZPE         0.833 [kcal/mol]        3.486 [kJ/mol]       0.00132768 [Eh]         291.392 [cm^-1]
  Correction ZPE            0.833 [kcal/mol]        3.486 [kJ/mol]       0.00132768 [Eh]         291.392 [cm^-1]
  Total ZPE, Electronic energy at 0 [K]                               -920.36215019 [Eh]

  Thermal Energy, E (includes ZPE)
    Electronic E            0.000 [kcal/mol]        0.000 [kJ/mol]       0.00000000 [Eh]
    Translational E         0.889 [kcal/mol]        3.718 [kJ/mol]       0.00141628 [Eh]
    Rotational E            0.592 [kcal/mol]        2.479 [kJ/mol]       0.00094418 [Eh]
    Vibrational E           0.940 [kcal/mol]        3.931 [kJ/mol]       0.00149737 [Eh]
  Correction E              2.421 [kcal/mol]       10.129 [kJ/mol]       0.00385783 [Eh]
  Total E, Electronic energy at  298.15 [K]                           -920.35962005 [Eh]

  Enthalpy, H_trans = E_trans + k_B * T
    Electronic H            0.000 [kcal/mol]        0.000 [kJ/mol]       0.00000000 [Eh]
    Translational H         1.481 [kcal/mol]        6.197 [kJ/mol]       0.00236046 [Eh]
    Rotational H            0.592 [kcal/mol]        2.479 [kJ/mol]       0.00094418 [Eh]
    Vibrational H           0.940 [kcal/mol]        3.931 [kJ/mol]       0.00149737 [Eh]
  Correction H              3.013 [kcal/mol]       12.608 [kJ/mol]       0.00480201 [Eh]
  Total H, Enthalpy at  298.15 [K]                                    -920.35867586 [Eh]

  Gibbs free energy, G = H - T * S
    Electronic G            0.000 [kcal/mol]        0.000 [kJ/mol]       0.00000000 [Eh]
    Translational G       -10.043 [kcal/mol]      -42.020 [kJ/mol]      -0.01600443 [Eh]
    Rotational G           -3.586 [kcal/mol]      -15.005 [kJ/mol]      -0.00571508 [Eh]
    Vibrational G           0.796 [kcal/mol]        3.332 [kJ/mol]       0.00126919 [Eh]
  Correction G            -12.833 [kcal/mol]      -53.692 [kJ/mol]      -0.02045032 [Eh]
  Total G, Free enthalpy at  298.15 [K]                               -920.38392819 [Eh]

*** Psi4 exiting successfully. Buy a developer a beer!
