                               Psi4 1.3.2 release

  ==> Input File <==

--------------------------------------------------------------------------
memory 144 GB

molecule {
0 1
Cl 0.0000000000 0.0000000000 0.0000000000
C 0.0000000000 0.0000000000 1.6357056100
N 0.0000000000 0.0000000000 2.7976884200
}

set dynamic_level 1
set basis cc-pV(T+d)Z

optimize("wB97M-V")
frequencies("wB97M-V")
--------------------------------------------------------------------------

    Molecular point group: c2v
  Charge       = 0
  Multiplicity = 1
  Basis Set: CC-PV(T+D)Z
    Blend: CC-PV(T+D)Z
  Basis Set: (CC-PV(T+D)Z AUX)
    Blend: CC-PVTZ-JKFIT
  @DF-RKS Final Energy:  -553.02457212131219
    Total Energy =                       -553.0245721213121897
    Molecular point group: c2v
  Basis Set: CC-PV(T+D)Z
    Blend: CC-PV(T+D)Z
  Basis Set: (CC-PV(T+D)Z AUX)
    Blend: CC-PVTZ-JKFIT
  @DF-RKS Final Energy:  -553.02456953467072
    Total Energy =                       -553.0245695346706043
  Basis Set: CC-PV(T+D)Z
    Blend: CC-PV(T+D)Z
  Basis Set: (CC-PV(T+D)Z AUX)
    Blend: CC-PVTZ-JKFIT
  @DF-RKS Final Energy:  -553.02457413232935
    Total Energy =                       -553.0245741323293487
  Basis Set: CC-PV(T+D)Z
    Blend: CC-PV(T+D)Z
  Basis Set: (CC-PV(T+D)Z AUX)
    Blend: CC-PVTZ-JKFIT
  @DF-RKS Final Energy:  -553.02451596513049
    Total Energy =                       -553.0245159651304903
  @DF-RKS Final Energy:  -553.02462341224407
    Total Energy =                       -553.0246234122439546
  @DF-RKS Final Energy:  -553.02490561711147
    Total Energy =                       -553.0249056171114717
  @DF-RKS Final Energy:  -553.02490527289660
    Total Energy =                       -553.0249052728964898
  @DF-RKS Final Energy:  -553.02490537738709
    Total Energy =                       -553.0249053773871992
  @DF-RKS Final Energy:  -553.02490124105418
    Total Energy =                       -553.0249012410542946
  @DF-RKS Final Energy:  -553.02490476245237
    Total Energy =                       -553.0249047624522518
  @DF-RKS Final Energy:  -553.02490595065467
    Total Energy =                       -553.0249059506546701
  @DF-RKS Final Energy:  -553.02490566432562
    Total Energy =                       -553.0249056643256154
  @DF-RKS Final Energy:  -553.02490565296739
    Total Energy =                       -553.0249056529672771
  @DF-RKS Final Energy:  -553.02490339521489
    Total Energy =                       -553.0249033952147784
  @DF-RKS Final Energy:  -553.02490326361283
    Total Energy =                       -553.0249032636128277
  **** Optimization is complete! (in 3 steps) ****
    Final optimized geometry and variables:
  @DF-RKS Final Energy:  -553.02490595065535
    Total Energy =                       -553.0249059506553522
  @DF-RKS Final Energy:  -553.02490566432562
    Total Energy =                       -553.0249056643257290
  @DF-RKS Final Energy:  -553.02490565302696
    Total Energy =                       -553.0249056530269627
  @DF-RKS Final Energy:  -553.02490339529027
    Total Energy =                       -553.0249033952903801
  @DF-RKS Final Energy:  -553.02490326326597
    Total Energy =                       -553.0249032632659691
  @DF-RKS Final Energy:  -553.02490595065501
    Total Energy =                       -553.0249059506550111
  @DF-RKS Final Energy:  -553.02490566432573
    Total Energy =                       -553.0249056643257290
  @DF-RKS Final Energy:  -553.02490565302764
    Total Energy =                       -553.0249056530276448
  @DF-RKS Final Energy:  -553.02490339529038
    Total Energy =                       -553.0249033952903801
  @DF-RKS Final Energy:  -553.02490326326597
    Total Energy =                       -553.0249032632659691
  Basis Set: CC-PV(T+D)Z
    Blend: CC-PV(T+D)Z
  Basis Set: (CC-PV(T+D)Z AUX)
    Blend: CC-PVTZ-JKFIT
  @DF-RKS Final Energy:  -553.02490340123597
    Total Energy =                       -553.0249034012359743
  Basis Set: CC-PV(T+D)Z
    Blend: CC-PV(T+D)Z
  Basis Set: (CC-PV(T+D)Z AUX)
    Blend: CC-PVTZ-JKFIT
  @DF-RKS Final Energy:  -553.02490354393399
    Total Energy =                       -553.0249035439339877
  Multiplicity = 1
  Basis Set: CC-PV(T+D)Z
    Blend: CC-PV(T+D)Z
  Basis Set: (CC-PV(T+D)Z AUX)
    Blend: CC-PVTZ-JKFIT
  @DF-RKS Final Energy:  -553.02490587257455
    Total Energy =                       -553.0249058725744362
    Molecular point group: cs

    Geometry (in Angstrom), charge = 0, multiplicity = 1:

       Center              X                  Y                   Z               Mass
    ------------   -----------------  -----------------  -----------------  -----------------
         CL           0.000000000000    -0.000093058506    -0.960737616353    34.968852682000
         C            0.000000000000     0.000656465051     0.672828876929    12.000000000000
         N            0.000000000000    -0.000330172604     1.822595927228    14.003074004430

  Charge       = 0
  Multiplicity = 1
  Basis Set: CC-PV(T+D)Z
    Blend: CC-PV(T+D)Z
  Basis Set: (CC-PV(T+D)Z AUX)
    Blend: CC-PVTZ-JKFIT

    Orbital Energies [Eh]
    ---------------------

    Doubly Occupied:

       1Ap  -101.977635     2Ap   -14.531980     3Ap   -10.445916
       4Ap    -9.733923     5Ap    -7.439798     1App   -7.430089
       6Ap    -7.430089     7Ap    -1.090709     8Ap    -1.030678
       9Ap    -0.684309     2App   -0.550197    10Ap    -0.550197
      11Ap    -0.500525     3App   -0.434410    12Ap    -0.434410

  @DF-RKS Final Energy:  -553.02490587286502

   => Energetics <=

    Nuclear Repulsion Energy =             74.9969376866322790
    One-Electron Energy =                -908.3404510086334085
    Two-Electron Energy =                 310.8266332345968408
    DFT Exchange-Correlation Energy =     -30.6324185568393794
    Empirical Dispersion Energy =           0.0000000000000000
    VV10 Nonlocal Energy =                  0.1243927713786656
    Total Energy =                       -553.0249058728651335

  Dipole Moment: [D]
     X:     0.0000      Y:     0.0007      Z:    -2.8896     Total:     2.8896

  Vibration                       6                   7                   8
  Freq [cm^-1]                 405.5189            406.2753            758.0331
  Irrep                           B2                  B1                  A1
  Reduced mass [u]             12.7606             12.7606             17.9648
  Force const [mDyne/A]         1.2364              1.2410              6.0820

  Vibration                       9
  Freq [cm^-1]                2363.0757
  Irrep                           A1
  Reduced mass [u]             12.7428
  Force const [mDyne/A]        41.9247

  ==> Thermochemistry Components <==

  Entropy, S
    Electronic S            0.000 [cal/(mol K)]        0.000 [J/(mol K)]       0.00000000 [mEh/K] (multiplicity = 1)
    Translational S        38.243 [cal/(mol K)]      160.010 [J/(mol K)]       0.06094445 [mEh/K] (mol. weight = 60.9719 [u], P = 101325.00 [Pa])
    Rotational S           15.783 [cal/(mol K)]       66.038 [J/(mol K)]       0.02515238 [mEh/K] (symmetry no. = 1)
    Vibrational S           2.127 [cal/(mol K)]        8.899 [J/(mol K)]       0.00338963 [mEh/K]
  Total S                  56.154 [cal/(mol K)]      234.947 [J/(mol K)]       0.08948646 [mEh/K]
  Correction S              0.000 [cal/(mol K)]        0.000 [J/(mol K)]       0.00000000 [mEh/K]

  Constant volume heat capacity, Cv
    Electronic Cv           0.000 [cal/(mol K)]        0.000 [J/(mol K)]       0.00000000 [mEh/K]
    Translational Cv        2.981 [cal/(mol K)]       12.472 [J/(mol K)]       0.00475022 [mEh/K]
    Rotational Cv           1.987 [cal/(mol K)]        8.314 [J/(mol K)]       0.00316681 [mEh/K]
    Vibrational Cv          3.640 [cal/(mol K)]       15.230 [J/(mol K)]       0.00580079 [mEh/K]
  Total Cv                  8.608 [cal/(mol K)]       36.016 [J/(mol K)]       0.01371782 [mEh/K]
  Correction Cv             0.000 [cal/(mol K)]        0.000 [J/(mol K)]       0.00000000 [mEh/K]

  Constant pressure heat capacity, Cp
    Electronic Cp           0.000 [cal/(mol K)]        0.000 [J/(mol K)]       0.00000000 [mEh/K]
    Translational Cp        4.968 [cal/(mol K)]       20.786 [J/(mol K)]       0.00791703 [mEh/K]
    Rotational Cp           1.987 [cal/(mol K)]        8.314 [J/(mol K)]       0.00316681 [mEh/K]
    Vibrational Cp          3.640 [cal/(mol K)]       15.230 [J/(mol K)]       0.00580079 [mEh/K]
  Total Cp                 10.595 [cal/(mol K)]       44.331 [J/(mol K)]       0.01688463 [mEh/K]
  Correction Cp             0.000 [cal/(mol K)]        0.000 [J/(mol K)]       0.00000000 [mEh/K]

  ==> Thermochemistry Energy Analysis <==

  Raw electronic energy, E0
  Total E0, Electronic energy at well bottom at 0 [K]                 -553.02490595 [Eh]

  Zero-point energy, ZPE_vib = Sum_i nu_i / 2
    Electronic ZPE          0.000 [kcal/mol]        0.000 [kJ/mol]       0.00000000 [Eh]
    Translational ZPE       0.000 [kcal/mol]        0.000 [kJ/mol]       0.00000000 [Eh]
    Rotational ZPE          0.000 [kcal/mol]        0.000 [kJ/mol]       0.00000000 [Eh]
    Vibrational ZPE         5.622 [kcal/mol]       23.524 [kJ/mol]       0.00895981 [Eh]        1966.452 [cm^-1]
  Correction ZPE            5.622 [kcal/mol]       23.524 [kJ/mol]       0.00895981 [Eh]        1966.452 [cm^-1]
  Total ZPE, Electronic energy at 0 [K]                               -553.01594614 [Eh]

  Thermal Energy, E (includes ZPE)
    Electronic E            0.000 [kcal/mol]        0.000 [kJ/mol]       0.00000000 [Eh]
    Translational E         0.889 [kcal/mol]        3.718 [kJ/mol]       0.00141628 [Eh]
    Rotational E            0.592 [kcal/mol]        2.479 [kJ/mol]       0.00094418 [Eh]
    Vibrational E           6.061 [kcal/mol]       25.359 [kJ/mol]       0.00965867 [Eh]
  Correction E              7.542 [kcal/mol]       31.556 [kJ/mol]       0.01201913 [Eh]
  Total E, Electronic energy at  298.15 [K]                           -553.01288682 [Eh]

  Enthalpy, H_trans = E_trans + k_B * T
    Electronic H            0.000 [kcal/mol]        0.000 [kJ/mol]       0.00000000 [Eh]
    Translational H         1.481 [kcal/mol]        6.197 [kJ/mol]       0.00236046 [Eh]
    Rotational H            0.592 [kcal/mol]        2.479 [kJ/mol]       0.00094418 [Eh]
    Vibrational H           6.061 [kcal/mol]       25.359 [kJ/mol]       0.00965867 [Eh]
  Correction H              8.135 [kcal/mol]       34.035 [kJ/mol]       0.01296331 [Eh]
  Total H, Enthalpy at  298.15 [K]                                    -553.01194264 [Eh]

  Gibbs free energy, G = H - T * S
    Electronic G            0.000 [kcal/mol]        0.000 [kJ/mol]       0.00000000 [Eh]
    Translational G        -9.921 [kcal/mol]      -41.509 [kJ/mol]      -0.01581013 [Eh]
    Rotational G           -4.113 [kcal/mol]      -17.210 [kJ/mol]      -0.00655500 [Eh]
    Vibrational G           5.427 [kcal/mol]       22.705 [kJ/mol]       0.00864805 [Eh]
  Correction G             -8.608 [kcal/mol]      -36.014 [kJ/mol]      -0.01371707 [Eh]
  Total G, Free enthalpy at  298.15 [K]                               -553.03862302 [Eh]

*** Psi4 exiting successfully. Buy a developer a beer!
