                               Psi4 1.3.2 release

  ==> Input File <==

--------------------------------------------------------------------------
memory 144 GB

molecule {
0 1
Cl 0.0000000000 0.0000000000 0.0000000000
F 0.0000000000 0.0000000000 1.6318233300
}

set dynamic_level 1
set basis cc-pV(T+d)Z

optimize("wB97M-V")
frequencies("wB97M-V")
--------------------------------------------------------------------------

    Molecular point group: c2v
  Charge       = 0
  Multiplicity = 1
  Basis Set: CC-PV(T+D)Z
    Blend: CC-PV(T+D)Z
  Basis Set: (CC-PV(T+D)Z AUX)
    Blend: CC-PVTZ-JKFIT
  @DF-RKS Final Energy:  -559.97171673250250
    Total Energy =                       -559.9717167325026139
    Molecular point group: c2v
  Basis Set: CC-PV(T+D)Z
    Blend: CC-PV(T+D)Z
  Basis Set: (CC-PV(T+D)Z AUX)
    Blend: CC-PVTZ-JKFIT
  @DF-RKS Final Energy:  -559.97171029775927
    Total Energy =                       -559.9717102977592731
  Basis Set: CC-PV(T+D)Z
    Blend: CC-PV(T+D)Z
  Basis Set: (CC-PV(T+D)Z AUX)
    Blend: CC-PVTZ-JKFIT
  @DF-RKS Final Energy:  -559.97172254306815
    Total Energy =                       -559.9717225430682674
  Basis Set: CC-PV(T+D)Z
    Blend: CC-PV(T+D)Z
  Basis Set: (CC-PV(T+D)Z AUX)
    Blend: CC-PVTZ-JKFIT
  @DF-RKS Final Energy:  -559.97174347943997
    Total Energy =                       -559.9717434794399651
  @DF-RKS Final Energy:  -559.97174122207753
    Total Energy =                       -559.9717412220774122
  @DF-RKS Final Energy:  -559.97174509633294
    Total Energy =                       -559.9717450963328247
  @DF-RKS Final Energy:  -559.97174639850323
    Total Energy =                       -559.9717463985033419
  @DF-RKS Final Energy:  -559.97174611129651
    Total Energy =                       -559.9717461112963974
  @DF-RKS Final Energy:  -559.97174603769679
    Total Energy =                       -559.9717460376967892
  **** Optimization is complete! (in 3 steps) ****
    Final optimized geometry and variables:
  @DF-RKS Final Energy:  -559.97174639850289
    Total Energy =                       -559.9717463985028871
  @DF-RKS Final Energy:  -559.97174611129628
    Total Energy =                       -559.9717461112963974
  Basis Set: CC-PV(T+D)Z
    Blend: CC-PV(T+D)Z
  Basis Set: (CC-PV(T+D)Z AUX)
    Blend: CC-PVTZ-JKFIT
  @DF-RKS Final Energy:  -559.97174603768065
    Total Energy =                       -559.9717460376806457
  Basis Set: CC-PV(T+D)Z
    Blend: CC-PV(T+D)Z
  Basis Set: (CC-PV(T+D)Z AUX)
    Blend: CC-PVTZ-JKFIT
  @DF-RKS Final Energy:  -559.97174639850289
    Total Energy =                       -559.9717463985028871
  Multiplicity = 1
  Basis Set: CC-PV(T+D)Z
    Blend: CC-PV(T+D)Z
  Basis Set: (CC-PV(T+D)Z AUX)
    Blend: CC-PVTZ-JKFIT
  @DF-RKS Final Energy:  -559.97174611129685
    Total Energy =                       -559.9717461112968522
    Molecular point group: c2v

    Geometry (in Angstrom), charge = 0, multiplicity = 1:

       Center              X                  Y                   Z               Mass
    ------------   -----------------  -----------------  -----------------  -----------------
         CL           0.000000000000     0.000000000000    -0.571623188242    34.968852682000
         F            0.000000000000     0.000000000000     1.052141429362    18.998403162730

  Charge       = 0
  Multiplicity = 1
  Basis Set: CC-PV(T+D)Z
    Blend: CC-PV(T+D)Z
  Basis Set: (CC-PV(T+D)Z AUX)
    Blend: CC-PVTZ-JKFIT

    Orbital Energies [Eh]
    ---------------------

    Doubly Occupied:

       1A1  -101.973311     2A1   -24.953130     3A1    -9.724853
       4A1    -7.435402     1B2    -7.418970     1B1    -7.418970
       5A1    -1.375371     6A1    -0.956069     7A1    -0.637288
       2B2    -0.600577     2B1    -0.600577     3B1    -0.430575
       3B2    -0.430575

  @DF-RKS Final Energy:  -559.97174603768144

   => Energetics <=

    Nuclear Repulsion Energy =             49.8619765172441163
    One-Electron Energy =                -873.2818836678177377
    Two-Electron Energy =                 292.8620987207712005
    DFT Exchange-Correlation Energy =     -29.5237969266563596
    Empirical Dispersion Energy =           0.0000000000000000
    VV10 Nonlocal Energy =                  0.1098593187774382
    Total Energy =                       -559.9717460376813278

  Dipole Moment: [D]
     X:     0.0000      Y:     0.0000      Z:    -0.9307     Total:     0.9307

  Vibration                       6
  Freq [cm^-1]                 827.6200
  Irrep                           A1
  Reduced mass [u]             22.6381
  Force const [mDyne/A]         9.1359

  ==> Thermochemistry Components <==

  Entropy, S
    Electronic S            0.000 [cal/(mol K)]        0.000 [J/(mol K)]       0.00000000 [mEh/K] (multiplicity = 1)
    Translational S        37.879 [cal/(mol K)]      158.488 [J/(mol K)]       0.06036475 [mEh/K] (mol. weight = 53.9673 [u], P = 101325.00 [Pa])
    Rotational S           13.890 [cal/(mol K)]       58.117 [J/(mol K)]       0.02213556 [mEh/K] (symmetry no. = 1)
    Vibrational S           0.186 [cal/(mol K)]        0.778 [J/(mol K)]       0.00029637 [mEh/K]
  Total S                  51.956 [cal/(mol K)]      217.383 [J/(mol K)]       0.08279667 [mEh/K]
  Correction S              0.000 [cal/(mol K)]        0.000 [J/(mol K)]       0.00000000 [mEh/K]

  Constant volume heat capacity, Cv
    Electronic Cv           0.000 [cal/(mol K)]        0.000 [J/(mol K)]       0.00000000 [mEh/K]
    Translational Cv        2.981 [cal/(mol K)]       12.472 [J/(mol K)]       0.00475022 [mEh/K]
    Rotational Cv           1.987 [cal/(mol K)]        8.314 [J/(mol K)]       0.00316681 [mEh/K]
    Vibrational Cv          0.606 [cal/(mol K)]        2.537 [J/(mol K)]       0.00096618 [mEh/K]
  Total Cv                  5.574 [cal/(mol K)]       23.323 [J/(mol K)]       0.00888321 [mEh/K]
  Correction Cv             0.000 [cal/(mol K)]        0.000 [J/(mol K)]       0.00000000 [mEh/K]

  Constant pressure heat capacity, Cp
    Electronic Cp           0.000 [cal/(mol K)]        0.000 [J/(mol K)]       0.00000000 [mEh/K]
    Translational Cp        4.968 [cal/(mol K)]       20.786 [J/(mol K)]       0.00791703 [mEh/K]
    Rotational Cp           1.987 [cal/(mol K)]        8.314 [J/(mol K)]       0.00316681 [mEh/K]
    Vibrational Cp          0.606 [cal/(mol K)]        2.537 [J/(mol K)]       0.00096618 [mEh/K]
  Total Cp                  7.562 [cal/(mol K)]       31.637 [J/(mol K)]       0.01205002 [mEh/K]
  Correction Cp             0.000 [cal/(mol K)]        0.000 [J/(mol K)]       0.00000000 [mEh/K]

  ==> Thermochemistry Energy Analysis <==

  Raw electronic energy, E0
  Total E0, Electronic energy at well bottom at 0 [K]                 -559.97174640 [Eh]

  Zero-point energy, ZPE_vib = Sum_i nu_i / 2
    Electronic ZPE          0.000 [kcal/mol]        0.000 [kJ/mol]       0.00000000 [Eh]
    Translational ZPE       0.000 [kcal/mol]        0.000 [kJ/mol]       0.00000000 [Eh]
    Rotational ZPE          0.000 [kcal/mol]        0.000 [kJ/mol]       0.00000000 [Eh]
    Vibrational ZPE         1.183 [kcal/mol]        4.950 [kJ/mol]       0.00188546 [Eh]         413.810 [cm^-1]
  Correction ZPE            1.183 [kcal/mol]        4.950 [kJ/mol]       0.00188546 [Eh]         413.810 [cm^-1]
  Total ZPE, Electronic energy at 0 [K]                               -559.96986094 [Eh]

  Thermal Energy, E (includes ZPE)
    Electronic E            0.000 [kcal/mol]        0.000 [kJ/mol]       0.00000000 [Eh]
    Translational E         0.889 [kcal/mol]        3.718 [kJ/mol]       0.00141628 [Eh]
    Rotational E            0.592 [kcal/mol]        2.479 [kJ/mol]       0.00094418 [Eh]
    Vibrational E           1.228 [kcal/mol]        5.136 [kJ/mol]       0.00195626 [Eh]
  Correction E              2.709 [kcal/mol]       11.334 [kJ/mol]       0.00431672 [Eh]
  Total E, Electronic energy at  298.15 [K]                           -559.96742968 [Eh]

  Enthalpy, H_trans = E_trans + k_B * T
    Electronic H            0.000 [kcal/mol]        0.000 [kJ/mol]       0.00000000 [Eh]
    Translational H         1.481 [kcal/mol]        6.197 [kJ/mol]       0.00236046 [Eh]
    Rotational H            0.592 [kcal/mol]        2.479 [kJ/mol]       0.00094418 [Eh]
    Vibrational H           1.228 [kcal/mol]        5.136 [kJ/mol]       0.00195626 [Eh]
  Correction H              3.301 [kcal/mol]       13.812 [kJ/mol]       0.00526090 [Eh]
  Total H, Enthalpy at  298.15 [K]                                    -559.96648550 [Eh]

  Gibbs free energy, G = H - T * S
    Electronic G            0.000 [kcal/mol]        0.000 [kJ/mol]       0.00000000 [Eh]
    Translational G        -9.813 [kcal/mol]      -41.056 [kJ/mol]      -0.01563729 [Eh]
    Rotational G           -3.549 [kcal/mol]      -14.849 [kJ/mol]      -0.00565553 [Eh]
    Vibrational G           1.172 [kcal/mol]        4.904 [kJ/mol]       0.00186789 [Eh]
  Correction G            -12.189 [kcal/mol]      -51.000 [kJ/mol]      -0.01942493 [Eh]
  Total G, Free enthalpy at  298.15 [K]                               -559.99117132 [Eh]

*** Psi4 exiting successfully. Buy a developer a beer!
