                               Psi4 1.3.2 release

  ==> Input File <==

--------------------------------------------------------------------------
memory 144 GB

molecule {
0 1
C 0.0000000000 0.0000000000 0.0000000000
O 0.0000000000 0.0000000000 1.1626000000
O 0.0000000000 0.0000000000 -1.1626000000
}

set dynamic_level 1
set basis cc-pV(T+d)Z

optimize("wB97M-V")
frequencies("wB97M-V")
--------------------------------------------------------------------------

    Molecular point group: d2h
  Charge       = 0
  Multiplicity = 1
  Basis Set: CC-PV(T+D)Z
    Blend: CC-PV(T+D)Z
  Basis Set: (CC-PV(T+D)Z AUX)
    Blend: CC-PVTZ-JKFIT
  @DF-RKS Final Energy:  -188.61267522434284
    Total Energy =                       -188.6126752243428655
    Molecular point group: d2h
  Basis Set: CC-PV(T+D)Z
    Blend: CC-PV(T+D)Z
  Basis Set: (CC-PV(T+D)Z AUX)
    Blend: CC-PVTZ-JKFIT
  @DF-RKS Final Energy:  -188.61268828933174
    Total Energy =                       -188.6126882893317713
  Basis Set: CC-PV(T+D)Z
    Blend: CC-PV(T+D)Z
  Basis Set: (CC-PV(T+D)Z AUX)
    Blend: CC-PVTZ-JKFIT
  @DF-RKS Final Energy:  -188.61266037433666
    Total Energy =                       -188.6126603743366559
  Basis Set: CC-PV(T+D)Z
    Blend: CC-PV(T+D)Z
  Basis Set: (CC-PV(T+D)Z AUX)
    Blend: CC-PVTZ-JKFIT
  @DF-RKS Final Energy:  -188.61272898355813
    Total Energy =                       -188.6127289835581280
  @DF-RKS Final Energy:  -188.61272924748653
    Total Energy =                       -188.6127292474865271
  @DF-RKS Final Energy:  -188.61272689385149
    Total Energy =                       -188.6127268938514874
  @DF-RKS Final Energy:  -188.61272936311488
    Total Energy =                       -188.6127293631148518
  @DF-RKS Final Energy:  -188.61272843350827
    Total Energy =                       -188.6127284335082663
  @DF-RKS Final Energy:  -188.61272846306150
    Total Energy =                       -188.6127284630615009
  **** Optimization is complete! (in 3 steps) ****
    Final optimized geometry and variables:
  @DF-RKS Final Energy:  -188.61272936311485
    Total Energy =                       -188.6127293631148234
  @DF-RKS Final Energy:  -188.61272843350832
    Total Energy =                       -188.6127284335083232
  @DF-RKS Final Energy:  -188.61272846306153
    Total Energy =                       -188.6127284630615293
  @DF-RKS Final Energy:  -188.61272936311494
    Total Energy =                       -188.6127293631149371
  @DF-RKS Final Energy:  -188.61272843350815
    Total Energy =                       -188.6127284335081526
  Basis Set: CC-PV(T+D)Z
    Blend: CC-PV(T+D)Z
  Basis Set: (CC-PV(T+D)Z AUX)
    Blend: CC-PVTZ-JKFIT
  @DF-RKS Final Energy:  -188.61272846306161
    Total Energy =                       -188.6127284630616145
  Basis Set: CC-PV(T+D)Z
    Blend: CC-PV(T+D)Z
  Basis Set: (CC-PV(T+D)Z AUX)
    Blend: CC-PVTZ-JKFIT
  @DF-RKS Final Energy:  -188.61272657243265
    Total Energy =                       -188.6127265724326492
  Multiplicity = 1
  Basis Set: CC-PV(T+D)Z
    Blend: CC-PV(T+D)Z
  Basis Set: (CC-PV(T+D)Z AUX)
    Blend: CC-PVTZ-JKFIT
  @DF-RKS Final Energy:  -188.61272914635936
    Total Energy =                       -188.6127291463593565
    Molecular point group: c2v

    Geometry (in Angstrom), charge = 0, multiplicity = 1:

       Center              X                  Y                   Z               Mass
    ------------   -----------------  -----------------  -----------------  -----------------
         C           -0.000651343880     0.000000000000     0.000000000000    12.000000000000
         O            0.000244331612     0.000000000000     1.158982618615    15.994914619570
         O            0.000244331612     0.000000000000    -1.158982618615    15.994914619570

  Charge       = 0
  Multiplicity = 1
  Basis Set: CC-PV(T+D)Z
    Blend: CC-PV(T+D)Z
  Basis Set: (CC-PV(T+D)Z AUX)
    Blend: CC-PVTZ-JKFIT

    Orbital Energies [Eh]
    ---------------------

    Doubly Occupied:

       1B2   -19.413230     1A1   -19.413172     2A1   -10.535769
       3A1    -1.294265     2B2    -1.251402     4A1    -0.680870
       1B1    -0.633174     5A1    -0.633174     3B2    -0.633046
       1A2    -0.475409     4B2    -0.475409

  @DF-RKS Final Energy:  -188.61272914628665

   => Energetics <=

    Nuclear Repulsion Energy =             58.4432127865238229
    One-Electron Energy =                -372.9485511425102686
    Two-Electron Energy =                 142.1986726184213410
    DFT Exchange-Correlation Energy =     -16.3978194053083683
    Empirical Dispersion Energy =           0.0000000000000000
    VV10 Nonlocal Energy =                  0.0917559965868267
    Total Energy =                       -188.6127291462866253

  Dipole Moment: [D]
     X:    -0.0024      Y:     0.0000      Z:     0.0000     Total:     0.0024

  Vibration                       6                   7                   8
  Freq [cm^-1]                 676.9154            677.0289           1390.6553
  Irrep                          B2u                 B3u                  Ag
  Reduced mass [u]             12.8774             12.8774             15.9949
  Force const [mDyne/A]         3.4765              3.4777             18.2252

  Vibration                       9
  Freq [cm^-1]                2428.8711
  Irrep                          B1u
  Reduced mass [u]             12.8774
  Force const [mDyne/A]        44.7596

  ==> Thermochemistry Components <==

  Entropy, S
    Electronic S            0.000 [cal/(mol K)]        0.000 [J/(mol K)]       0.00000000 [mEh/K] (multiplicity = 1)
    Translational S        37.270 [cal/(mol K)]      155.938 [J/(mol K)]       0.05939371 [mEh/K] (mol. weight = 43.9898 [u], P = 101325.00 [Pa])
    Rotational S           13.069 [cal/(mol K)]       54.679 [J/(mol K)]       0.02082607 [mEh/K] (symmetry no. = 2)
    Vibrational S           0.688 [cal/(mol K)]        2.879 [J/(mol K)]       0.00109643 [mEh/K]
  Total S                  51.027 [cal/(mol K)]      213.496 [J/(mol K)]       0.08131622 [mEh/K]
  Correction S              0.000 [cal/(mol K)]        0.000 [J/(mol K)]       0.00000000 [mEh/K]

  Constant volume heat capacity, Cv
    Electronic Cv           0.000 [cal/(mol K)]        0.000 [J/(mol K)]       0.00000000 [mEh/K]
    Translational Cv        2.981 [cal/(mol K)]       12.472 [J/(mol K)]       0.00475022 [mEh/K]
    Rotational Cv           1.987 [cal/(mol K)]        8.314 [J/(mol K)]       0.00316681 [mEh/K]
    Vibrational Cv          1.859 [cal/(mol K)]        7.780 [J/(mol K)]       0.00296308 [mEh/K]
  Total Cv                  6.827 [cal/(mol K)]       28.566 [J/(mol K)]       0.01088011 [mEh/K]
  Correction Cv             0.000 [cal/(mol K)]        0.000 [J/(mol K)]       0.00000000 [mEh/K]

  Constant pressure heat capacity, Cp
    Electronic Cp           0.000 [cal/(mol K)]        0.000 [J/(mol K)]       0.00000000 [mEh/K]
    Translational Cp        4.968 [cal/(mol K)]       20.786 [J/(mol K)]       0.00791703 [mEh/K]
    Rotational Cp           1.987 [cal/(mol K)]        8.314 [J/(mol K)]       0.00316681 [mEh/K]
    Vibrational Cp          1.859 [cal/(mol K)]        7.780 [J/(mol K)]       0.00296308 [mEh/K]
  Total Cp                  8.815 [cal/(mol K)]       36.880 [J/(mol K)]       0.01404692 [mEh/K]
  Correction Cp             0.000 [cal/(mol K)]        0.000 [J/(mol K)]       0.00000000 [mEh/K]

  ==> Thermochemistry Energy Analysis <==

  Raw electronic energy, E0
  Total E0, Electronic energy at well bottom at 0 [K]                 -188.61272936 [Eh]

  Zero-point energy, ZPE_vib = Sum_i nu_i / 2
    Electronic ZPE          0.000 [kcal/mol]        0.000 [kJ/mol]       0.00000000 [Eh]
    Translational ZPE       0.000 [kcal/mol]        0.000 [kJ/mol]       0.00000000 [Eh]
    Rotational ZPE          0.000 [kcal/mol]        0.000 [kJ/mol]       0.00000000 [Eh]
    Vibrational ZPE         7.396 [kcal/mol]       30.944 [kJ/mol]       0.01178603 [Eh]        2586.735 [cm^-1]
  Correction ZPE            7.396 [kcal/mol]       30.944 [kJ/mol]       0.01178603 [Eh]        2586.735 [cm^-1]
  Total ZPE, Electronic energy at 0 [K]                               -188.60094333 [Eh]

  Thermal Energy, E (includes ZPE)
    Electronic E            0.000 [kcal/mol]        0.000 [kJ/mol]       0.00000000 [Eh]
    Translational E         0.889 [kcal/mol]        3.718 [kJ/mol]       0.00141628 [Eh]
    Rotational E            0.592 [kcal/mol]        2.479 [kJ/mol]       0.00094418 [Eh]
    Vibrational E           7.554 [kcal/mol]       31.607 [kJ/mol]       0.01203837 [Eh]
  Correction E              9.035 [kcal/mol]       37.804 [kJ/mol]       0.01439883 [Eh]
  Total E, Electronic energy at  298.15 [K]                           -188.59833053 [Eh]

  Enthalpy, H_trans = E_trans + k_B * T
    Electronic H            0.000 [kcal/mol]        0.000 [kJ/mol]       0.00000000 [Eh]
    Translational H         1.481 [kcal/mol]        6.197 [kJ/mol]       0.00236046 [Eh]
    Rotational H            0.592 [kcal/mol]        2.479 [kJ/mol]       0.00094418 [Eh]
    Vibrational H           7.554 [kcal/mol]       31.607 [kJ/mol]       0.01203837 [Eh]
  Correction H              9.628 [kcal/mol]       40.283 [kJ/mol]       0.01534302 [Eh]
  Total H, Enthalpy at  298.15 [K]                                    -188.59738634 [Eh]

  Gibbs free energy, G = H - T * S
    Electronic G            0.000 [kcal/mol]        0.000 [kJ/mol]       0.00000000 [Eh]
    Translational G        -9.631 [kcal/mol]      -40.296 [kJ/mol]      -0.01534777 [Eh]
    Rotational G           -3.304 [kcal/mol]      -13.824 [kJ/mol]      -0.00526511 [Eh]
    Vibrational G           7.349 [kcal/mol]       30.748 [kJ/mol]       0.01171147 [Eh]
  Correction G             -5.586 [kcal/mol]      -23.371 [kJ/mol]      -0.00890141 [Eh]
  Total G, Free enthalpy at  298.15 [K]                               -188.62163078 [Eh]

*** Psi4 exiting successfully. Buy a developer a beer!
