                               Psi4 1.3.2 release

  ==> Input File <==

--------------------------------------------------------------------------
memory 144 GB

molecule {
0 1
C 0.0000000000 0.0000000000 0.0000000000
O 0.0000000000 0.0000000000 1.1314000000
}

set dynamic_level 1
set basis cc-pV(T+d)Z

optimize("wB97M-V")
frequencies("wB97M-V")
--------------------------------------------------------------------------

    Molecular point group: c2v
  Charge       = 0
  Multiplicity = 1
  Basis Set: CC-PV(T+D)Z
    Blend: CC-PV(T+D)Z
  Basis Set: (CC-PV(T+D)Z AUX)
    Blend: CC-PVTZ-JKFIT
  @DF-RKS Final Energy:  -113.33285372380418
    Total Energy =                       -113.3328537238041775
    Molecular point group: c2v
  Basis Set: CC-PV(T+D)Z
    Blend: CC-PV(T+D)Z
  Basis Set: (CC-PV(T+D)Z AUX)
    Blend: CC-PVTZ-JKFIT
  @DF-RKS Final Energy:  -113.33282449742048
    Total Energy =                       -113.3328244974204750
  Basis Set: CC-PV(T+D)Z
    Blend: CC-PV(T+D)Z
  Basis Set: (CC-PV(T+D)Z AUX)
    Blend: CC-PVTZ-JKFIT
  @DF-RKS Final Energy:  -113.33287839781379
    Total Energy =                       -113.3328783978137864
  Basis Set: CC-PV(T+D)Z
    Blend: CC-PV(T+D)Z
  Basis Set: (CC-PV(T+D)Z AUX)
    Blend: CC-PVTZ-JKFIT
  @DF-RKS Final Energy:  -113.33293083988936
    Total Energy =                       -113.3329308398893573
  @DF-RKS Final Energy:  -113.33292458707533
    Total Energy =                       -113.3329245870753255
  @DF-RKS Final Energy:  -113.33293237980121
    Total Energy =                       -113.3329323798011927
  @DF-RKS Final Energy:  -113.33293245142289
    Total Energy =                       -113.3329324514229057
  @DF-RKS Final Energy:  -113.33293016056653
    Total Energy =                       -113.3329301605665336
  @DF-RKS Final Energy:  -113.33293000170073
    Total Energy =                       -113.3329300017007313
  **** Optimization is complete! (in 3 steps) ****
    Final optimized geometry and variables:
  @DF-RKS Final Energy:  -113.33293245142301
    Total Energy =                       -113.3329324514230052
  @DF-RKS Final Energy:  -113.33293016056645
    Total Energy =                       -113.3329301605664341
  Basis Set: CC-PV(T+D)Z
    Blend: CC-PV(T+D)Z
  Basis Set: (CC-PV(T+D)Z AUX)
    Blend: CC-PVTZ-JKFIT
  @DF-RKS Final Energy:  -113.33293000170069
    Total Energy =                       -113.3329300017006886
  Basis Set: CC-PV(T+D)Z
    Blend: CC-PV(T+D)Z
  Basis Set: (CC-PV(T+D)Z AUX)
    Blend: CC-PVTZ-JKFIT
  @DF-RKS Final Energy:  -113.33293245142302
    Total Energy =                       -113.3329324514230194
  Multiplicity = 1
  Basis Set: CC-PV(T+D)Z
    Blend: CC-PV(T+D)Z
  Basis Set: (CC-PV(T+D)Z AUX)
    Blend: CC-PVTZ-JKFIT
  @DF-RKS Final Energy:  -113.33293016056651
    Total Energy =                       -113.3329301605665194
    Molecular point group: c2v

    Geometry (in Angstrom), charge = 0, multiplicity = 1:

       Center              X                  Y                   Z               Mass
    ------------   -----------------  -----------------  -----------------  -----------------
         C            0.000000000000     0.000000000000    -0.642489957012    12.000000000000
         O            0.000000000000     0.000000000000     0.482020671415    15.994914619570

  Charge       = 0
  Multiplicity = 1
  Basis Set: CC-PV(T+D)Z
    Blend: CC-PV(T+D)Z
  Basis Set: (CC-PV(T+D)Z AUX)
    Blend: CC-PVTZ-JKFIT

    Orbital Energies [Eh]
    ---------------------

    Doubly Occupied:

       1A1   -19.438588     2A1   -10.458352     3A1    -1.295083
       4A1    -0.691430     1B1    -0.584357     1B2    -0.584357
       5A1    -0.484360

  @DF-RKS Final Energy:  -113.33293000170048

   => Energetics <=

    Nuclear Repulsion Energy =             22.5880533896797111
    One-Electron Energy =                -198.4609383520014489
    Two-Electron Energy =                  72.5325390422598844
    DFT Exchange-Correlation Energy =     -10.0517056774420617
    Empirical Dispersion Energy =           0.0000000000000000
    VV10 Nonlocal Energy =                  0.0591215958034342
    Total Energy =                       -113.3329300017004755

  Dipole Moment: [D]
     X:     0.0000      Y:     0.0000      Z:     0.1083     Total:     0.1083

  Vibration                       6
  Freq [cm^-1]                2238.4633
  Irrep                           A1
  Reduced mass [u]             13.4388
  Force const [mDyne/A]        39.6743

  ==> Thermochemistry Components <==

  Entropy, S
    Electronic S            0.000 [cal/(mol K)]        0.000 [J/(mol K)]       0.00000000 [mEh/K] (multiplicity = 1)
    Translational S        35.923 [cal/(mol K)]      150.302 [J/(mol K)]       0.05724692 [mEh/K] (mol. weight = 27.9949 [u], P = 101325.00 [Pa])
    Rotational S           11.269 [cal/(mol K)]       47.148 [J/(mol K)]       0.01795786 [mEh/K] (symmetry no. = 1)
    Vibrational S           0.000 [cal/(mol K)]        0.002 [J/(mol K)]       0.00000076 [mEh/K]
  Total S                  47.192 [cal/(mol K)]      197.452 [J/(mol K)]       0.07520555 [mEh/K]
  Correction S              0.000 [cal/(mol K)]        0.000 [J/(mol K)]       0.00000000 [mEh/K]

  Constant volume heat capacity, Cv
    Electronic Cv           0.000 [cal/(mol K)]        0.000 [J/(mol K)]       0.00000000 [mEh/K]
    Translational Cv        2.981 [cal/(mol K)]       12.472 [J/(mol K)]       0.00475022 [mEh/K]
    Rotational Cv           1.987 [cal/(mol K)]        8.314 [J/(mol K)]       0.00316681 [mEh/K]
    Vibrational Cv          0.005 [cal/(mol K)]        0.020 [J/(mol K)]       0.00000752 [mEh/K]
  Total Cv                  4.973 [cal/(mol K)]       20.806 [J/(mol K)]       0.00792455 [mEh/K]
  Correction Cv             0.000 [cal/(mol K)]        0.000 [J/(mol K)]       0.00000000 [mEh/K]

  Constant pressure heat capacity, Cp
    Electronic Cp           0.000 [cal/(mol K)]        0.000 [J/(mol K)]       0.00000000 [mEh/K]
    Translational Cp        4.968 [cal/(mol K)]       20.786 [J/(mol K)]       0.00791703 [mEh/K]
    Rotational Cp           1.987 [cal/(mol K)]        8.314 [J/(mol K)]       0.00316681 [mEh/K]
    Vibrational Cp          0.005 [cal/(mol K)]        0.020 [J/(mol K)]       0.00000752 [mEh/K]
  Total Cp                  6.960 [cal/(mol K)]       29.120 [J/(mol K)]       0.01109136 [mEh/K]
  Correction Cp             0.000 [cal/(mol K)]        0.000 [J/(mol K)]       0.00000000 [mEh/K]

  ==> Thermochemistry Energy Analysis <==

  Raw electronic energy, E0
  Total E0, Electronic energy at well bottom at 0 [K]                 -113.33293245 [Eh]

  Zero-point energy, ZPE_vib = Sum_i nu_i / 2
    Electronic ZPE          0.000 [kcal/mol]        0.000 [kJ/mol]       0.00000000 [Eh]
    Translational ZPE       0.000 [kcal/mol]        0.000 [kJ/mol]       0.00000000 [Eh]
    Rotational ZPE          0.000 [kcal/mol]        0.000 [kJ/mol]       0.00000000 [Eh]
    Vibrational ZPE         3.200 [kcal/mol]       13.389 [kJ/mol]       0.00509959 [Eh]        1119.232 [cm^-1]
  Correction ZPE            3.200 [kcal/mol]       13.389 [kJ/mol]       0.00509959 [Eh]        1119.232 [cm^-1]
  Total ZPE, Electronic energy at 0 [K]                               -113.32783286 [Eh]

  Thermal Energy, E (includes ZPE)
    Electronic E            0.000 [kcal/mol]        0.000 [kJ/mol]       0.00000000 [Eh]
    Translational E         0.889 [kcal/mol]        3.718 [kJ/mol]       0.00141628 [Eh]
    Rotational E            0.592 [kcal/mol]        2.479 [kJ/mol]       0.00094418 [Eh]
    Vibrational E           3.200 [kcal/mol]       13.390 [kJ/mol]       0.00509980 [Eh]
  Correction E              4.681 [kcal/mol]       19.587 [kJ/mol]       0.00746026 [Eh]
  Total E, Electronic energy at  298.15 [K]                           -113.32547219 [Eh]

  Enthalpy, H_trans = E_trans + k_B * T
    Electronic H            0.000 [kcal/mol]        0.000 [kJ/mol]       0.00000000 [Eh]
    Translational H         1.481 [kcal/mol]        6.197 [kJ/mol]       0.00236046 [Eh]
    Rotational H            0.592 [kcal/mol]        2.479 [kJ/mol]       0.00094418 [Eh]
    Vibrational H           3.200 [kcal/mol]       13.390 [kJ/mol]       0.00509980 [Eh]
  Correction H              5.274 [kcal/mol]       22.066 [kJ/mol]       0.00840445 [Eh]
  Total H, Enthalpy at  298.15 [K]                                    -113.32452800 [Eh]

  Gibbs free energy, G = H - T * S
    Electronic G            0.000 [kcal/mol]        0.000 [kJ/mol]       0.00000000 [Eh]
    Translational G        -9.229 [kcal/mol]      -38.615 [kJ/mol]      -0.01470771 [Eh]
    Rotational G           -2.767 [kcal/mol]      -11.578 [kJ/mol]      -0.00440995 [Eh]
    Vibrational G           3.200 [kcal/mol]       13.389 [kJ/mol]       0.00509958 [Eh]
  Correction G             -8.796 [kcal/mol]      -36.804 [kJ/mol]      -0.01401809 [Eh]
  Total G, Free enthalpy at  298.15 [K]                               -113.34695054 [Eh]

*** Psi4 exiting successfully. Buy a developer a beer!
