                               Psi4 1.3.2 release

  ==> Input File <==

--------------------------------------------------------------------------
memory 144 GB

molecule {
0 1
C 0.0000000000 0.0000000000 0.0000000000
S 0.0000000000 0.0000000000 1.5576337400
S 0.0000000000 0.0000000000 -1.5576337400
}

set dynamic_level 1
set basis cc-pV(T+d)Z

optimize("wB97M-V")
frequencies("wB97M-V")
--------------------------------------------------------------------------

    Molecular point group: d2h
  Charge       = 0
  Multiplicity = 1
  Basis Set: CC-PV(T+D)Z
    Blend: CC-PV(T+D)Z
  Basis Set: (CC-PV(T+D)Z AUX)
    Blend: CC-PVTZ-JKFIT
  @DF-RKS Final Energy:  -834.48819212659293
    Total Energy =                       -834.4881921265929350
    Molecular point group: d2h
  Basis Set: CC-PV(T+D)Z
    Blend: CC-PV(T+D)Z
  Basis Set: (CC-PV(T+D)Z AUX)
    Blend: CC-PVTZ-JKFIT
  @DF-RKS Final Energy:  -834.48820461390437
    Total Energy =                       -834.4882046139044860
  Basis Set: CC-PV(T+D)Z
    Blend: CC-PV(T+D)Z
  Basis Set: (CC-PV(T+D)Z AUX)
    Blend: CC-PVTZ-JKFIT
  @DF-RKS Final Energy:  -834.48817920617955
    Total Energy =                       -834.4881792061795522
  Basis Set: CC-PV(T+D)Z
    Blend: CC-PV(T+D)Z
  Basis Set: (CC-PV(T+D)Z AUX)
    Blend: CC-PVTZ-JKFIT
  @DF-RKS Final Energy:  -834.48837476460176
    Total Energy =                       -834.4883747646016445
  @DF-RKS Final Energy:  -834.48837531831396
    Total Energy =                       -834.4883753183141835
  @DF-RKS Final Energy:  -834.48837375741084
    Total Energy =                       -834.4883737574108409
  @DF-RKS Final Energy:  -834.48837543335367
    Total Energy =                       -834.4883754333536672
  @DF-RKS Final Energy:  -834.48837518618109
    Total Energy =                       -834.4883751861810879
  @DF-RKS Final Energy:  -834.48837522649046
    Total Energy =                       -834.4883752264904615
  **** Optimization is complete! (in 3 steps) ****
    Final optimized geometry and variables:
  @DF-RKS Final Energy:  -834.48837543335401
    Total Energy =                       -834.4883754333538946
  @DF-RKS Final Energy:  -834.48837518618109
    Total Energy =                       -834.4883751861810879
  @DF-RKS Final Energy:  -834.48837522649069
    Total Energy =                       -834.4883752264908026
  @DF-RKS Final Energy:  -834.48837543335355
    Total Energy =                       -834.4883754333536672
  @DF-RKS Final Energy:  -834.48837518618109
    Total Energy =                       -834.4883751861812016
  Basis Set: CC-PV(T+D)Z
    Blend: CC-PV(T+D)Z
  Basis Set: (CC-PV(T+D)Z AUX)
    Blend: CC-PVTZ-JKFIT
  @DF-RKS Final Energy:  -834.48837522649058
    Total Energy =                       -834.4883752264905752
  Basis Set: CC-PV(T+D)Z
    Blend: CC-PV(T+D)Z
  Basis Set: (CC-PV(T+D)Z AUX)
    Blend: CC-PVTZ-JKFIT
  @DF-RKS Final Energy:  -834.48837425971374
    Total Energy =                       -834.4883742597138507
  Multiplicity = 1
  Basis Set: CC-PV(T+D)Z
    Blend: CC-PV(T+D)Z
  Basis Set: (CC-PV(T+D)Z AUX)
    Blend: CC-PVTZ-JKFIT
  @DF-RKS Final Energy:  -834.48837535182497
    Total Energy =                       -834.4883753518249705
    Molecular point group: c2v

    Geometry (in Angstrom), charge = 0, multiplicity = 1:

       Center              X                  Y                   Z               Mass
    ------------   -----------------  -----------------  -----------------  -----------------
         C           -0.000700864006     0.000000000000     0.000000000000    12.000000000000
         S            0.000131526794     0.000000000000     1.548151317029    31.972071174400
         S            0.000131526794     0.000000000000    -1.548151317029    31.972071174400

  Charge       = 0
  Multiplicity = 1
  Basis Set: CC-PV(T+D)Z
    Blend: CC-PV(T+D)Z
  Basis Set: (CC-PV(T+D)Z AUX)
    Blend: CC-PVTZ-JKFIT

    Orbital Energies [Eh]
    ---------------------

    Doubly Occupied:

       1B2   -89.232120     1A1   -89.232118     2A1   -10.477832
       2B2    -8.148371     3A1    -8.148352     3B2    -6.057256
       4A1    -6.057255     1A2    -6.053412     4B2    -6.053412
       1B1    -6.053411     5A1    -6.053411     6A1    -0.984472
       5B2    -0.889162     7A1    -0.613925     6B2    -0.529790
       8A1    -0.496030     2B1    -0.496030     2A2    -0.356917
       7B2    -0.356917

  @DF-RKS Final Energy:  -834.48837535220139

   => Energetics <=

    Nuclear Repulsion Energy =            109.3799364867585950
    One-Electron Energy =               -1367.9628200210891009
    Two-Electron Energy =                 467.3779228640336783
    DFT Exchange-Correlation Energy =     -43.4404265269792376
    Empirical Dispersion Energy =           0.0000000000000000
    VV10 Nonlocal Energy =                  0.1570118450746244
    Total Energy =                       -834.4883753522012739

  Dipole Moment: [D]
     X:     0.0006      Y:     0.0000      Z:     0.0000     Total:     0.0006

  Vibration                       6                   7                   8
  Freq [cm^-1]                 414.1897            415.1492            692.7542
  Irrep                          B3u                 B2u                  Ag
  Reduced mass [u]             13.3142             13.3142             31.9721
  Force const [mDyne/A]         1.3457              1.3520              9.0402

  Vibration                       9
  Freq [cm^-1]                1575.1310
  Irrep                          B1u
  Reduced mass [u]             13.3142
  Force const [mDyne/A]        19.4625

  ==> Thermochemistry Components <==

  Entropy, S
    Electronic S            0.000 [cal/(mol K)]        0.000 [J/(mol K)]       0.00000000 [mEh/K] (multiplicity = 1)
    Translational S        38.898 [cal/(mol K)]      162.748 [J/(mol K)]       0.06198752 [mEh/K] (mol. weight = 75.9441 [u], P = 101325.00 [Pa])
    Rotational S           15.596 [cal/(mol K)]       65.252 [J/(mol K)]       0.02485308 [mEh/K] (symmetry no. = 2)
    Vibrational S           2.144 [cal/(mol K)]        8.970 [J/(mol K)]       0.00341647 [mEh/K]
  Total S                  56.637 [cal/(mol K)]      236.970 [J/(mol K)]       0.09025707 [mEh/K]
  Correction S              0.000 [cal/(mol K)]        0.000 [J/(mol K)]       0.00000000 [mEh/K]

  Constant volume heat capacity, Cv
    Electronic Cv           0.000 [cal/(mol K)]        0.000 [J/(mol K)]       0.00000000 [mEh/K]
    Translational Cv        2.981 [cal/(mol K)]       12.472 [J/(mol K)]       0.00475022 [mEh/K]
    Rotational Cv           1.987 [cal/(mol K)]        8.314 [J/(mol K)]       0.00316681 [mEh/K]
    Vibrational Cv          3.777 [cal/(mol K)]       15.805 [J/(mol K)]       0.00601962 [mEh/K]
  Total Cv                  8.745 [cal/(mol K)]       36.591 [J/(mol K)]       0.01393665 [mEh/K]
  Correction Cv             0.000 [cal/(mol K)]        0.000 [J/(mol K)]       0.00000000 [mEh/K]

  Constant pressure heat capacity, Cp
    Electronic Cp           0.000 [cal/(mol K)]        0.000 [J/(mol K)]       0.00000000 [mEh/K]
    Translational Cp        4.968 [cal/(mol K)]       20.786 [J/(mol K)]       0.00791703 [mEh/K]
    Rotational Cp           1.987 [cal/(mol K)]        8.314 [J/(mol K)]       0.00316681 [mEh/K]
    Vibrational Cp          3.777 [cal/(mol K)]       15.805 [J/(mol K)]       0.00601962 [mEh/K]
  Total Cp                 10.733 [cal/(mol K)]       44.905 [J/(mol K)]       0.01710346 [mEh/K]
  Correction Cp             0.000 [cal/(mol K)]        0.000 [J/(mol K)]       0.00000000 [mEh/K]

  ==> Thermochemistry Energy Analysis <==

  Raw electronic energy, E0
  Total E0, Electronic energy at well bottom at 0 [K]                 -834.48837543 [Eh]

  Zero-point energy, ZPE_vib = Sum_i nu_i / 2
    Electronic ZPE          0.000 [kcal/mol]        0.000 [kJ/mol]       0.00000000 [Eh]
    Translational ZPE       0.000 [kcal/mol]        0.000 [kJ/mol]       0.00000000 [Eh]
    Rotational ZPE          0.000 [kcal/mol]        0.000 [kJ/mol]       0.00000000 [Eh]
    Vibrational ZPE         4.428 [kcal/mol]       18.526 [kJ/mol]       0.00705600 [Eh]        1548.612 [cm^-1]
  Correction ZPE            4.428 [kcal/mol]       18.526 [kJ/mol]       0.00705600 [Eh]        1548.612 [cm^-1]
  Total ZPE, Electronic energy at 0 [K]                               -834.48131944 [Eh]

  Thermal Energy, E (includes ZPE)
    Electronic E            0.000 [kcal/mol]        0.000 [kJ/mol]       0.00000000 [Eh]
    Translational E         0.889 [kcal/mol]        3.718 [kJ/mol]       0.00141628 [Eh]
    Rotational E            0.592 [kcal/mol]        2.479 [kJ/mol]       0.00094418 [Eh]
    Vibrational E           4.873 [kcal/mol]       20.389 [kJ/mol]       0.00776590 [Eh]
  Correction E              6.354 [kcal/mol]       26.587 [kJ/mol]       0.01012636 [Eh]
  Total E, Electronic energy at  298.15 [K]                           -834.47824907 [Eh]

  Enthalpy, H_trans = E_trans + k_B * T
    Electronic H            0.000 [kcal/mol]        0.000 [kJ/mol]       0.00000000 [Eh]
    Translational H         1.481 [kcal/mol]        6.197 [kJ/mol]       0.00236046 [Eh]
    Rotational H            0.592 [kcal/mol]        2.479 [kJ/mol]       0.00094418 [Eh]
    Vibrational H           4.873 [kcal/mol]       20.389 [kJ/mol]       0.00776590 [Eh]
  Correction H              6.947 [kcal/mol]       29.066 [kJ/mol]       0.01107055 [Eh]
  Total H, Enthalpy at  298.15 [K]                                    -834.47730489 [Eh]

  Gibbs free energy, G = H - T * S
    Electronic G            0.000 [kcal/mol]        0.000 [kJ/mol]       0.00000000 [Eh]
    Translational G       -10.116 [kcal/mol]      -42.326 [kJ/mol]      -0.01612112 [Eh]
    Rotational G           -4.057 [kcal/mol]      -16.976 [kJ/mol]      -0.00646576 [Eh]
    Vibrational G           4.234 [kcal/mol]       17.715 [kJ/mol]       0.00674728 [Eh]
  Correction G             -9.939 [kcal/mol]      -41.587 [kJ/mol]      -0.01583960 [Eh]
  Total G, Free enthalpy at  298.15 [K]                               -834.50421503 [Eh]

*** Psi4 exiting successfully. Buy a developer a beer!
