                               Psi4 1.3.2 release

  ==> Input File <==

--------------------------------------------------------------------------
memory 144 GB

molecule {
0 1
C 0.0000000000 0.0000000000 0.0000000000
S 0.0000000000 0.0000000000 1.5415329200
}

set dynamic_level 1
set basis cc-pV(T+d)Z

optimize("wB97M-V")
frequencies("wB97M-V")
--------------------------------------------------------------------------

    Molecular point group: c2v
  Charge       = 0
  Multiplicity = 1
  Basis Set: CC-PV(T+D)Z
    Blend: CC-PV(T+D)Z
  Basis Set: (CC-PV(T+D)Z AUX)
    Blend: CC-PVTZ-JKFIT
  @DF-RKS Final Energy:  -436.21599068245126
    Total Energy =                       -436.2159906824513200
    Molecular point group: c2v
  Basis Set: CC-PV(T+D)Z
    Blend: CC-PV(T+D)Z
  Basis Set: (CC-PV(T+D)Z AUX)
    Blend: CC-PVTZ-JKFIT
  @DF-RKS Final Energy:  -436.21595839864966
    Total Energy =                       -436.2159583986496045
  Basis Set: CC-PV(T+D)Z
    Blend: CC-PV(T+D)Z
  Basis Set: (CC-PV(T+D)Z AUX)
    Blend: CC-PVTZ-JKFIT
  @DF-RKS Final Energy:  -436.21602138338767
    Total Energy =                       -436.2160213833876696
  Basis Set: CC-PV(T+D)Z
    Blend: CC-PV(T+D)Z
  Basis Set: (CC-PV(T+D)Z AUX)
    Blend: CC-PVTZ-JKFIT
  @DF-RKS Final Energy:  -436.21629121634697
    Total Energy =                       -436.2162912163469741
  @DF-RKS Final Energy:  -436.21628697522561
    Total Energy =                       -436.2162869752255006
  @DF-RKS Final Energy:  -436.21629374107135
    Total Energy =                       -436.2162937410713539
  @DF-RKS Final Energy:  -436.21629453554141
    Total Energy =                       -436.2162945355414081
  @DF-RKS Final Energy:  -436.21629382477306
    Total Energy =                       -436.2162938247730608
  @DF-RKS Final Energy:  -436.21629351310128
    Total Energy =                       -436.2162935131012773
  **** Optimization is complete! (in 3 steps) ****
    Final optimized geometry and variables:
  @DF-RKS Final Energy:  -436.21629453554124
    Total Energy =                       -436.2162945355412376
  @DF-RKS Final Energy:  -436.21629382477158
    Total Energy =                       -436.2162938247715829
  Basis Set: CC-PV(T+D)Z
    Blend: CC-PV(T+D)Z
  Basis Set: (CC-PV(T+D)Z AUX)
    Blend: CC-PVTZ-JKFIT
  @DF-RKS Final Energy:  -436.21629351310082
    Total Energy =                       -436.2162935131008794
  Basis Set: CC-PV(T+D)Z
    Blend: CC-PV(T+D)Z
  Basis Set: (CC-PV(T+D)Z AUX)
    Blend: CC-PVTZ-JKFIT
  @DF-RKS Final Energy:  -436.21629453554164
    Total Energy =                       -436.2162945355416355
  Multiplicity = 1
  Basis Set: CC-PV(T+D)Z
    Blend: CC-PV(T+D)Z
  Basis Set: (CC-PV(T+D)Z AUX)
    Blend: CC-PVTZ-JKFIT
  @DF-RKS Final Energy:  -436.21629382477209
    Total Energy =                       -436.2162938247720376
    Molecular point group: c2v

    Geometry (in Angstrom), charge = 0, multiplicity = 1:

       Center              X                  Y                   Z               Mass
    ------------   -----------------  -----------------  -----------------  -----------------
         C            0.000000000000     0.000000000000    -1.107756794258    12.000000000000
         S            0.000000000000     0.000000000000     0.415771673301    31.972071174400

  Charge       = 0
  Multiplicity = 1
  Basis Set: CC-PV(T+D)Z
    Blend: CC-PV(T+D)Z
  Basis Set: (CC-PV(T+D)Z AUX)
    Blend: CC-PVTZ-JKFIT

    Orbital Energies [Eh]
    ---------------------

    Doubly Occupied:

       1A1   -89.247935     2A1   -10.441221     3A1    -8.167333
       1B2    -6.073703     1B1    -6.073703     4A1    -6.072865
       5A1    -0.957576     6A1    -0.627494     2B2    -0.450201
       2B1    -0.450201     7A1    -0.410726

  @DF-RKS Final Energy:  -436.21629351310082

   => Energetics <=

    Nuclear Repulsion Energy =             33.3443144030676990
    One-Electron Energy =                -666.4167749655301805
    Two-Electron Energy =                 220.3321347473568892
    DFT Exchange-Correlation Energy =     -23.5680243851782407
    Empirical Dispersion Energy =           0.0000000000000000
    VV10 Nonlocal Energy =                  0.0920566871830955
    Total Energy =                       -436.2162935131007657

  Dipole Moment: [D]
     X:     0.0000      Y:     0.0000      Z:     1.9448     Total:     1.9448

  Vibration                       6
  Freq [cm^-1]                1353.5051
  Irrep                           A1
  Reduced mass [u]             14.4661
  Force const [mDyne/A]        15.6142

  ==> Thermochemistry Components <==

  Entropy, S
    Electronic S            0.000 [cal/(mol K)]        0.000 [J/(mol K)]       0.00000000 [mEh/K] (multiplicity = 1)
    Translational S        37.269 [cal/(mol K)]      155.933 [J/(mol K)]       0.05939180 [mEh/K] (mol. weight = 43.9721 [u], P = 101325.00 [Pa])
    Rotational S           12.953 [cal/(mol K)]       54.197 [J/(mol K)]       0.02064269 [mEh/K] (symmetry no. = 1)
    Vibrational S           0.022 [cal/(mol K)]        0.091 [J/(mol K)]       0.00003479 [mEh/K]
  Total S                  50.244 [cal/(mol K)]      210.222 [J/(mol K)]       0.08006928 [mEh/K]
  Correction S              0.000 [cal/(mol K)]        0.000 [J/(mol K)]       0.00000000 [mEh/K]

  Constant volume heat capacity, Cv
    Electronic Cv           0.000 [cal/(mol K)]        0.000 [J/(mol K)]       0.00000000 [mEh/K]
    Translational Cv        2.981 [cal/(mol K)]       12.472 [J/(mol K)]       0.00475022 [mEh/K]
    Rotational Cv           1.987 [cal/(mol K)]        8.314 [J/(mol K)]       0.00316681 [mEh/K]
    Vibrational Cv          0.124 [cal/(mol K)]        0.518 [J/(mol K)]       0.00019738 [mEh/K]
  Total Cv                  5.092 [cal/(mol K)]       21.304 [J/(mol K)]       0.00811440 [mEh/K]
  Correction Cv             0.000 [cal/(mol K)]        0.000 [J/(mol K)]       0.00000000 [mEh/K]

  Constant pressure heat capacity, Cp
    Electronic Cp           0.000 [cal/(mol K)]        0.000 [J/(mol K)]       0.00000000 [mEh/K]
    Translational Cp        4.968 [cal/(mol K)]       20.786 [J/(mol K)]       0.00791703 [mEh/K]
    Rotational Cp           1.987 [cal/(mol K)]        8.314 [J/(mol K)]       0.00316681 [mEh/K]
    Vibrational Cp          0.124 [cal/(mol K)]        0.518 [J/(mol K)]       0.00019738 [mEh/K]
  Total Cp                  7.079 [cal/(mol K)]       29.619 [J/(mol K)]       0.01128121 [mEh/K]
  Correction Cp             0.000 [cal/(mol K)]        0.000 [J/(mol K)]       0.00000000 [mEh/K]

  ==> Thermochemistry Energy Analysis <==

  Raw electronic energy, E0
  Total E0, Electronic energy at well bottom at 0 [K]                 -436.21629454 [Eh]

  Zero-point energy, ZPE_vib = Sum_i nu_i / 2
    Electronic ZPE          0.000 [kcal/mol]        0.000 [kJ/mol]       0.00000000 [Eh]
    Translational ZPE       0.000 [kcal/mol]        0.000 [kJ/mol]       0.00000000 [Eh]
    Rotational ZPE          0.000 [kcal/mol]        0.000 [kJ/mol]       0.00000000 [Eh]
    Vibrational ZPE         1.935 [kcal/mol]        8.096 [kJ/mol]       0.00308351 [Eh]         676.753 [cm^-1]
  Correction ZPE            1.935 [kcal/mol]        8.096 [kJ/mol]       0.00308351 [Eh]         676.753 [cm^-1]
  Total ZPE, Electronic energy at 0 [K]                               -436.21321102 [Eh]

  Thermal Energy, E (includes ZPE)
    Electronic E            0.000 [kcal/mol]        0.000 [kJ/mol]       0.00000000 [Eh]
    Translational E         0.889 [kcal/mol]        3.718 [kJ/mol]       0.00141628 [Eh]
    Rotational E            0.592 [kcal/mol]        2.479 [kJ/mol]       0.00094418 [Eh]
    Vibrational E           1.941 [kcal/mol]        8.119 [kJ/mol]       0.00309251 [Eh]
  Correction E              3.422 [kcal/mol]       14.317 [kJ/mol]       0.00545297 [Eh]
  Total E, Electronic energy at  298.15 [K]                           -436.21084157 [Eh]

  Enthalpy, H_trans = E_trans + k_B * T
    Electronic H            0.000 [kcal/mol]        0.000 [kJ/mol]       0.00000000 [Eh]
    Translational H         1.481 [kcal/mol]        6.197 [kJ/mol]       0.00236046 [Eh]
    Rotational H            0.592 [kcal/mol]        2.479 [kJ/mol]       0.00094418 [Eh]
    Vibrational H           1.941 [kcal/mol]        8.119 [kJ/mol]       0.00309251 [Eh]
  Correction H              4.014 [kcal/mol]       16.796 [kJ/mol]       0.00639715 [Eh]
  Total H, Enthalpy at  298.15 [K]                                    -436.20989738 [Eh]

  Gibbs free energy, G = H - T * S
    Electronic G            0.000 [kcal/mol]        0.000 [kJ/mol]       0.00000000 [Eh]
    Translational G        -9.631 [kcal/mol]      -40.294 [kJ/mol]      -0.01534720 [Eh]
    Rotational G           -3.270 [kcal/mol]      -13.680 [kJ/mol]      -0.00521043 [Eh]
    Vibrational G           1.934 [kcal/mol]        8.092 [kJ/mol]       0.00308214 [Eh]
  Correction G            -10.966 [kcal/mol]      -45.882 [kJ/mol]      -0.01747550 [Eh]
  Total G, Free enthalpy at  298.15 [K]                               -436.23377004 [Eh]

*** Psi4 exiting successfully. Buy a developer a beer!
