                               Psi4 1.3.2 release

  ==> Input File <==

--------------------------------------------------------------------------
memory 144 GB

molecule {
0 1
F 0.0000000000 0.0000000000 0.0000000000
F 0.0000000000 0.0000000000 1.4129000000
}

set dynamic_level 1
set basis cc-pV(T+d)Z

optimize("wB97M-V")
frequencies("wB97M-V")
--------------------------------------------------------------------------

    Molecular point group: d2h
  Charge       = 0
  Multiplicity = 1
  Basis Set: CC-PV(T+D)Z
    Blend: CC-PV(T+D)Z
  Basis Set: (CC-PV(T+D)Z AUX)
    Blend: CC-PVTZ-JKFIT
  @DF-RKS Final Energy:  -199.53626673440067
    Total Energy =                       -199.5362667344006411
    Molecular point group: d2h
  Basis Set: CC-PV(T+D)Z
    Blend: CC-PV(T+D)Z
  Basis Set: (CC-PV(T+D)Z AUX)
    Blend: CC-PVTZ-JKFIT
  @DF-RKS Final Energy:  -199.53622856118577
    Total Energy =                       -199.5362285611858226
  Basis Set: CC-PV(T+D)Z
    Blend: CC-PV(T+D)Z
  Basis Set: (CC-PV(T+D)Z AUX)
    Blend: CC-PVTZ-JKFIT
  @DF-RKS Final Energy:  -199.53630394519305
    Total Energy =                       -199.5363039451930547
  Basis Set: CC-PV(T+D)Z
    Blend: CC-PV(T+D)Z
  Basis Set: (CC-PV(T+D)Z AUX)
    Blend: CC-PVTZ-JKFIT
  @DF-RKS Final Energy:  -199.53695410815092
    Total Energy =                       -199.5369541081509510
  @DF-RKS Final Energy:  -199.53695029687191
    Total Energy =                       -199.5369502968719075
  @DF-RKS Final Energy:  -199.53695677643978
    Total Energy =                       -199.5369567764397516
  @DF-RKS Final Energy:  -199.53695863834622
    Total Energy =                       -199.5369586383461922
  @DF-RKS Final Energy:  -199.53695837083328
    Total Energy =                       -199.5369583708332470
  @DF-RKS Final Energy:  -199.53695774454272
    Total Energy =                       -199.5369577445426899
  **** Optimization is complete! (in 3 steps) ****
    Final optimized geometry and variables:
  @DF-RKS Final Energy:  -199.53695863834616
    Total Energy =                       -199.5369586383461638
  @DF-RKS Final Energy:  -199.53695837083330
    Total Energy =                       -199.5369583708332755
  Basis Set: CC-PV(T+D)Z
    Blend: CC-PV(T+D)Z
  Basis Set: (CC-PV(T+D)Z AUX)
    Blend: CC-PVTZ-JKFIT
  @DF-RKS Final Energy:  -199.53695774454260
    Total Energy =                       -199.5369577445426330
  Basis Set: CC-PV(T+D)Z
    Blend: CC-PV(T+D)Z
  Basis Set: (CC-PV(T+D)Z AUX)
    Blend: CC-PVTZ-JKFIT
  @DF-RKS Final Energy:  -199.53695863834636
    Total Energy =                       -199.5369586383463343
  Multiplicity = 1
  Basis Set: CC-PV(T+D)Z
    Blend: CC-PV(T+D)Z
  Basis Set: (CC-PV(T+D)Z AUX)
    Blend: CC-PVTZ-JKFIT
  @DF-RKS Final Energy:  -199.53695837083336
    Total Energy =                       -199.5369583708333892
    Molecular point group: d2h

    Geometry (in Angstrom), charge = 0, multiplicity = 1:

       Center              X                  Y                   Z               Mass
    ------------   -----------------  -----------------  -----------------  -----------------
         F            0.000000000000     0.000000000000    -0.690620510791    18.998403162730
         F            0.000000000000     0.000000000000     0.690620510791    18.998403162730

  Charge       = 0
  Multiplicity = 1
  Basis Set: CC-PV(T+D)Z
    Blend: CC-PV(T+D)Z
  Basis Set: (CC-PV(T+D)Z AUX)
    Blend: CC-PVTZ-JKFIT

    Orbital Energies [Eh]
    ---------------------

    Doubly Occupied:

       1Ag   -25.006405     1B1u  -25.006391     2Ag    -1.493633
       2B1u   -1.232839     3Ag    -0.707262     1B2u   -0.658258
       1B3u   -0.658258     1B3g   -0.515869     1B2g   -0.515869

  @DF-RKS Final Energy:  -199.53695774454269

   => Energetics <=

    Nuclear Repulsion Energy =             31.0324942530224099
    One-Electron Energy =                -339.9245195018748404
    Two-Electron Energy =                 124.6197065087358737
    DFT Exchange-Correlation Energy =     -15.3416841118068898
    Empirical Dispersion Energy =           0.0000000000000000
    VV10 Nonlocal Energy =                  0.0770451073807499
    Total Energy =                       -199.5369577445426899

  Dipole Moment: [D]
     X:     0.0000      Y:     0.0000      Z:    -0.0000     Total:     0.0000

  Vibration                       6
  Freq [cm^-1]                1107.9231
  Irrep                           Ag
  Reduced mass [u]             18.9984
  Force const [mDyne/A]        13.7400

  ==> Thermochemistry Components <==

  Entropy, S
    Electronic S            0.000 [cal/(mol K)]        0.000 [J/(mol K)]       0.00000000 [mEh/K] (multiplicity = 1)
    Translational S        36.834 [cal/(mol K)]      154.112 [J/(mol K)]       0.05869802 [mEh/K] (mol. weight = 37.9968 [u], P = 101325.00 [Pa])
    Rotational S           11.355 [cal/(mol K)]       47.511 [J/(mol K)]       0.01809600 [mEh/K] (symmetry no. = 2)
    Vibrational S           0.060 [cal/(mol K)]        0.253 [J/(mol K)]       0.00009619 [mEh/K]
  Total S                  48.249 [cal/(mol K)]      201.875 [J/(mol K)]       0.07689021 [mEh/K]
  Correction S              0.000 [cal/(mol K)]        0.000 [J/(mol K)]       0.00000000 [mEh/K]

  Constant volume heat capacity, Cv
    Electronic Cv           0.000 [cal/(mol K)]        0.000 [J/(mol K)]       0.00000000 [mEh/K]
    Translational Cv        2.981 [cal/(mol K)]       12.472 [J/(mol K)]       0.00475022 [mEh/K]
    Rotational Cv           1.987 [cal/(mol K)]        8.314 [J/(mol K)]       0.00316681 [mEh/K]
    Vibrational Cv          0.273 [cal/(mol K)]        1.143 [J/(mol K)]       0.00043547 [mEh/K]
  Total Cv                  5.241 [cal/(mol K)]       21.929 [J/(mol K)]       0.00835250 [mEh/K]
  Correction Cv             0.000 [cal/(mol K)]        0.000 [J/(mol K)]       0.00000000 [mEh/K]

  Constant pressure heat capacity, Cp
    Electronic Cp           0.000 [cal/(mol K)]        0.000 [J/(mol K)]       0.00000000 [mEh/K]
    Translational Cp        4.968 [cal/(mol K)]       20.786 [J/(mol K)]       0.00791703 [mEh/K]
    Rotational Cp           1.987 [cal/(mol K)]        8.314 [J/(mol K)]       0.00316681 [mEh/K]
    Vibrational Cp          0.273 [cal/(mol K)]        1.143 [J/(mol K)]       0.00043547 [mEh/K]
  Total Cp                  7.228 [cal/(mol K)]       30.244 [J/(mol K)]       0.01151931 [mEh/K]
  Correction Cp             0.000 [cal/(mol K)]        0.000 [J/(mol K)]       0.00000000 [mEh/K]

  ==> Thermochemistry Energy Analysis <==

  Raw electronic energy, E0
  Total E0, Electronic energy at well bottom at 0 [K]                 -199.53695864 [Eh]

  Zero-point energy, ZPE_vib = Sum_i nu_i / 2
    Electronic ZPE          0.000 [kcal/mol]        0.000 [kJ/mol]       0.00000000 [Eh]
    Translational ZPE       0.000 [kcal/mol]        0.000 [kJ/mol]       0.00000000 [Eh]
    Rotational ZPE          0.000 [kcal/mol]        0.000 [kJ/mol]       0.00000000 [Eh]
    Vibrational ZPE         1.584 [kcal/mol]        6.627 [kJ/mol]       0.00252403 [Eh]         553.962 [cm^-1]
  Correction ZPE            1.584 [kcal/mol]        6.627 [kJ/mol]       0.00252403 [Eh]         553.962 [cm^-1]
  Total ZPE, Electronic energy at 0 [K]                               -199.53443460 [Eh]

  Thermal Energy, E (includes ZPE)
    Electronic E            0.000 [kcal/mol]        0.000 [kJ/mol]       0.00000000 [Eh]
    Translational E         0.889 [kcal/mol]        3.718 [kJ/mol]       0.00141628 [Eh]
    Rotational E            0.592 [kcal/mol]        2.479 [kJ/mol]       0.00094418 [Eh]
    Vibrational E           1.599 [kcal/mol]        6.690 [kJ/mol]       0.00254820 [Eh]
  Correction E              3.080 [kcal/mol]       12.888 [kJ/mol]       0.00490866 [Eh]
  Total E, Electronic energy at  298.15 [K]                           -199.53204997 [Eh]

  Enthalpy, H_trans = E_trans + k_B * T
    Electronic H            0.000 [kcal/mol]        0.000 [kJ/mol]       0.00000000 [Eh]
    Translational H         1.481 [kcal/mol]        6.197 [kJ/mol]       0.00236046 [Eh]
    Rotational H            0.592 [kcal/mol]        2.479 [kJ/mol]       0.00094418 [Eh]
    Vibrational H           1.599 [kcal/mol]        6.690 [kJ/mol]       0.00254820 [Eh]
  Correction H              3.673 [kcal/mol]       15.367 [kJ/mol]       0.00585285 [Eh]
  Total H, Enthalpy at  298.15 [K]                                    -199.53110579 [Eh]

  Gibbs free energy, G = H - T * S
    Electronic G            0.000 [kcal/mol]        0.000 [kJ/mol]       0.00000000 [Eh]
    Translational G        -9.501 [kcal/mol]      -39.751 [kJ/mol]      -0.01514035 [Eh]
    Rotational G           -2.793 [kcal/mol]      -11.686 [kJ/mol]      -0.00445114 [Eh]
    Vibrational G           1.581 [kcal/mol]        6.615 [kJ/mol]       0.00251952 [Eh]
  Correction G            -10.713 [kcal/mol]      -44.822 [kJ/mol]      -0.01707197 [Eh]
  Total G, Free enthalpy at  298.15 [K]                               -199.55403060 [Eh]

*** Psi4 exiting successfully. Buy a developer a beer!
