                               Psi4 1.3.2 release

  ==> Input File <==

--------------------------------------------------------------------------
memory 144 GB

molecule {
0 1
O 0.0000000000 0.0000000000 0.0000000000
C 0.0000000000 0.0000000000 1.2066000000
H 0.9369544103 0.0000000000 1.7870836544
H -0.9369544103 0.0000000000 1.7870836544
}

set dynamic_level 1
set basis cc-pV(T+d)Z

optimize("wB97M-V")
frequencies("wB97M-V")
--------------------------------------------------------------------------

    Molecular point group: c2v
  Charge       = 0
  Multiplicity = 1
  Basis Set: CC-PV(T+D)Z
    Blend: CC-PV(T+D)Z
  Basis Set: (CC-PV(T+D)Z AUX)
    Blend: CC-PVTZ-JKFIT
  @DF-RKS Final Energy:  -114.50229229591940
    Total Energy =                       -114.5022922959194034
    Molecular point group: c2v
  Basis Set: CC-PV(T+D)Z
    Blend: CC-PV(T+D)Z
  Basis Set: (CC-PV(T+D)Z AUX)
    Blend: CC-PVTZ-JKFIT
  @DF-RKS Final Energy:  -114.50226530475520
    Total Energy =                       -114.5022653047551984
  Basis Set: CC-PV(T+D)Z
    Blend: CC-PV(T+D)Z
  Basis Set: (CC-PV(T+D)Z AUX)
    Blend: CC-PVTZ-JKFIT
  @DF-RKS Final Energy:  -114.50231639827285
    Total Energy =                       -114.5023163982728391
  Basis Set: CC-PV(T+D)Z
    Blend: CC-PV(T+D)Z
  Basis Set: (CC-PV(T+D)Z AUX)
    Blend: CC-PVTZ-JKFIT
  @DF-RKS Final Energy:  -114.50230018856274
    Total Energy =                       -114.5023001885627281
  @DF-RKS Final Energy:  -114.50228045364116
    Total Energy =                       -114.5022804536411627
  @DF-RKS Final Energy:  -114.50228666063106
    Total Energy =                       -114.5022866606310714
  @DF-RKS Final Energy:  -114.50229137856651
    Total Energy =                       -114.5022913785665111
  @DF-RKS Final Energy:  -114.50240392050220
    Total Energy =                       -114.5024039205021893
  @DF-RKS Final Energy:  -114.50239884148166
    Total Energy =                       -114.5023988414816642
  @DF-RKS Final Energy:  -114.50240597169115
    Total Energy =                       -114.5024059716911466
  @DF-RKS Final Energy:  -114.50240776912021
    Total Energy =                       -114.5024077691202109
  @DF-RKS Final Energy:  -114.50239611203166
    Total Energy =                       -114.5023961120316613
  @DF-RKS Final Energy:  -114.50239889412160
    Total Energy =                       -114.5023988941216118
  @DF-RKS Final Energy:  -114.50240242420860
    Total Energy =                       -114.5024024242085972
  @DF-RKS Final Energy:  -114.50240984613912
    Total Energy =                       -114.5024098461391162
  @DF-RKS Final Energy:  -114.50240848147484
    Total Energy =                       -114.5024084814748591
  @DF-RKS Final Energy:  -114.50240815758951
    Total Energy =                       -114.5024081575895138
  @DF-RKS Final Energy:  -114.50240894576881
    Total Energy =                       -114.5024089457688206
  @DF-RKS Final Energy:  -114.50240678686893
    Total Energy =                       -114.5024067868689031
  @DF-RKS Final Energy:  -114.50240656428971
    Total Energy =                       -114.5024065642897142
  **** Optimization is complete! (in 4 steps) ****
    Final optimized geometry and variables:
  @DF-RKS Final Energy:  -114.50240685053473
    Total Energy =                       -114.5024068505347117
  @DF-RKS Final Energy:  -114.50240676957240
    Total Energy =                       -114.5024067695724312
  @DF-RKS Final Energy:  -114.50241005041077
    Total Energy =                       -114.5024100504107736
  @DF-RKS Final Energy:  -114.50240853805710
    Total Energy =                       -114.5024085380570966
  @DF-RKS Final Energy:  -114.50240850944770
    Total Energy =                       -114.5024085094476902
  @DF-RKS Final Energy:  -114.50240815288969
    Total Energy =                       -114.5024081528896716
  @DF-RKS Final Energy:  -114.50240798703129
    Total Energy =                       -114.5024079870312903
  @DF-RKS Final Energy:  -114.50240685053465
    Total Energy =                       -114.5024068505346548
  @DF-RKS Final Energy:  -114.50240676957235
    Total Energy =                       -114.5024067695723460
  @DF-RKS Final Energy:  -114.50240676453275
    Total Energy =                       -114.5024067645327506
  @DF-RKS Final Energy:  -114.50240695731219
    Total Energy =                       -114.5024069573121750
  @DF-RKS Final Energy:  -114.50240546111658
    Total Energy =                       -114.5024054611165809
  @DF-RKS Final Energy:  -114.50240556872987
    Total Energy =                       -114.5024055687298841
  @DF-RKS Final Energy:  -114.50240721190291
    Total Energy =                       -114.5024072119029057
  @DF-RKS Final Energy:  -114.50240747259159
    Total Energy =                       -114.5024074725915852
  @DF-RKS Final Energy:  -114.50240928838976
    Total Energy =                       -114.5024092883897566
  Basis Set: CC-PV(T+D)Z
    Blend: CC-PV(T+D)Z
  Basis Set: (CC-PV(T+D)Z AUX)
    Blend: CC-PVTZ-JKFIT
  @DF-RKS Final Energy:  -114.50240585832884
    Total Energy =                       -114.5024058583288280
  Basis Set: CC-PV(T+D)Z
    Blend: CC-PV(T+D)Z
  Basis Set: (CC-PV(T+D)Z AUX)
    Blend: CC-PVTZ-JKFIT
  @DF-RKS Final Energy:  -114.50240513737288
    Total Energy =                       -114.5024051373728753
  Multiplicity = 1
  Basis Set: CC-PV(T+D)Z
    Blend: CC-PV(T+D)Z
  Basis Set: (CC-PV(T+D)Z AUX)
    Blend: CC-PVTZ-JKFIT
  @DF-RKS Final Energy:  -114.50240513727009
    Total Energy =                       -114.5024051372700882
    Molecular point group: cs

    Geometry (in Angstrom), charge = 0, multiplicity = 1:

       Center              X                  Y                   Z               Mass
    ------------   -----------------  -----------------  -----------------  -----------------
         O            0.000000000000    -0.000096750913    -0.598696603649    15.994914619570
         C            0.000000000000     0.000393359198     0.599215668915    12.000000000000
         H            0.936818302415    -0.001574076689     1.183495624298     1.007825032230
         H           -0.936818302415    -0.001574076689     1.183495624298     1.007825032230

  Charge       = 0
  Multiplicity = 1
  Basis Set: CC-PV(T+D)Z
    Blend: CC-PV(T+D)Z
  Basis Set: (CC-PV(T+D)Z AUX)
    Blend: CC-PVTZ-JKFIT

    Orbital Energies [Eh]
    ---------------------

    Doubly Occupied:

       1Ap   -19.350913     2Ap   -10.441241     3Ap    -1.194357
       4Ap    -0.752376     1App   -0.608137     5Ap    -0.563966
       6Ap    -0.509396     2App   -0.373462

  @DF-RKS Final Energy:  -114.50240936328048

   => Energetics <=

    Nuclear Repulsion Energy =             31.4430768490500121
    One-Electron Energy =                -217.7595903891180171
    Two-Electron Energy =                  82.2316008326901198
    DFT Exchange-Correlation Energy =     -10.4840019254109240
    Empirical Dispersion Energy =           0.0000000000000000
    VV10 Nonlocal Energy =                  0.0665052695083222
    Total Energy =                       -114.5024093632804778

  Dipole Moment: [D]
     X:     0.0000      Y:    -0.0008      Z:     2.2976     Total:     2.2976

  Vibration                       7                   8                   9
  Freq [cm^-1]                1205.2269           1269.1057           1533.4246
  Irrep                           B2                  B1                  A1
  Reduced mass [u]              1.3675              1.3440              1.0955
  Force const [mDyne/A]         1.1703              1.2754              1.5177

  Vibration                       10                  11                  12
  Freq [cm^-1]                1850.1444           2913.6757           2976.9429
  Irrep                           A1                  A1                  B1
  Reduced mass [u]              7.9049              1.0442              1.1203
  Force const [mDyne/A]        15.9426              5.2229              5.8498

  ==> Thermochemistry Components <==

  Entropy, S
    Electronic S            0.000 [cal/(mol K)]        0.000 [J/(mol K)]       0.00000000 [mEh/K] (multiplicity = 1)
    Translational S        36.130 [cal/(mol K)]      151.169 [J/(mol K)]       0.05757719 [mEh/K] (mol. weight = 30.0106 [u], P = 101325.00 [Pa])
    Rotational S           15.991 [cal/(mol K)]       66.905 [J/(mol K)]       0.02548288 [mEh/K] (symmetry no. = 2)
    Vibrational S           0.084 [cal/(mol K)]        0.353 [J/(mol K)]       0.00013448 [mEh/K]
  Total S                  52.205 [cal/(mol K)]      218.427 [J/(mol K)]       0.08319456 [mEh/K]
  Correction S              0.000 [cal/(mol K)]        0.000 [J/(mol K)]       0.00000000 [mEh/K]

  Constant volume heat capacity, Cv
    Electronic Cv           0.000 [cal/(mol K)]        0.000 [J/(mol K)]       0.00000000 [mEh/K]
    Translational Cv        2.981 [cal/(mol K)]       12.472 [J/(mol K)]       0.00475022 [mEh/K]
    Rotational Cv           2.981 [cal/(mol K)]       12.472 [J/(mol K)]       0.00475022 [mEh/K]
    Vibrational Cv          0.454 [cal/(mol K)]        1.897 [J/(mol K)]       0.00072271 [mEh/K]
  Total Cv                  6.415 [cal/(mol K)]       26.841 [J/(mol K)]       0.01022314 [mEh/K]
  Correction Cv             0.000 [cal/(mol K)]        0.000 [J/(mol K)]       0.00000000 [mEh/K]

  Constant pressure heat capacity, Cp
    Electronic Cp           0.000 [cal/(mol K)]        0.000 [J/(mol K)]       0.00000000 [mEh/K]
    Translational Cp        4.968 [cal/(mol K)]       20.786 [J/(mol K)]       0.00791703 [mEh/K]
    Rotational Cp           2.981 [cal/(mol K)]       12.472 [J/(mol K)]       0.00475022 [mEh/K]
    Vibrational Cp          0.454 [cal/(mol K)]        1.897 [J/(mol K)]       0.00072271 [mEh/K]
  Total Cp                  8.402 [cal/(mol K)]       35.155 [J/(mol K)]       0.01338995 [mEh/K]
  Correction Cp             0.000 [cal/(mol K)]        0.000 [J/(mol K)]       0.00000000 [mEh/K]

  ==> Thermochemistry Energy Analysis <==

  Raw electronic energy, E0
  Total E0, Electronic energy at well bottom at 0 [K]                 -114.50241005 [Eh]

  Zero-point energy, ZPE_vib = Sum_i nu_i / 2
    Electronic ZPE          0.000 [kcal/mol]        0.000 [kJ/mol]       0.00000000 [Eh]
    Translational ZPE       0.000 [kcal/mol]        0.000 [kJ/mol]       0.00000000 [Eh]
    Rotational ZPE          0.000 [kcal/mol]        0.000 [kJ/mol]       0.00000000 [Eh]
    Vibrational ZPE        16.795 [kcal/mol]       70.272 [kJ/mol]       0.02676510 [Eh]        5874.260 [cm^-1]
  Correction ZPE           16.795 [kcal/mol]       70.272 [kJ/mol]       0.02676510 [Eh]        5874.260 [cm^-1]
  Total ZPE, Electronic energy at 0 [K]                               -114.47564495 [Eh]

  Thermal Energy, E (includes ZPE)
    Electronic E            0.000 [kcal/mol]        0.000 [kJ/mol]       0.00000000 [Eh]
    Translational E         0.889 [kcal/mol]        3.718 [kJ/mol]       0.00141628 [Eh]
    Rotational E            0.889 [kcal/mol]        3.718 [kJ/mol]       0.00141628 [Eh]
    Vibrational E          16.817 [kcal/mol]       70.362 [kJ/mol]       0.02679960 [Eh]
  Correction E             18.594 [kcal/mol]       77.799 [kJ/mol]       0.02963216 [Eh]
  Total E, Electronic energy at  298.15 [K]                           -114.47277789 [Eh]

  Enthalpy, H_trans = E_trans + k_B * T
    Electronic H            0.000 [kcal/mol]        0.000 [kJ/mol]       0.00000000 [Eh]
    Translational H         1.481 [kcal/mol]        6.197 [kJ/mol]       0.00236046 [Eh]
    Rotational H            0.889 [kcal/mol]        3.718 [kJ/mol]       0.00141628 [Eh]
    Vibrational H          16.817 [kcal/mol]       70.362 [kJ/mol]       0.02679960 [Eh]
  Correction H             19.187 [kcal/mol]       80.278 [kJ/mol]       0.03057634 [Eh]
  Total H, Enthalpy at  298.15 [K]                                    -114.47183371 [Eh]

  Gibbs free energy, G = H - T * S
    Electronic G            0.000 [kcal/mol]        0.000 [kJ/mol]       0.00000000 [Eh]
    Translational G        -9.291 [kcal/mol]      -38.874 [kJ/mol]      -0.01480618 [Eh]
    Rotational G           -3.879 [kcal/mol]      -16.229 [kJ/mol]      -0.00618144 [Eh]
    Vibrational G          16.792 [kcal/mol]       70.257 [kJ/mol]       0.02675951 [Eh]
  Correction G              3.622 [kcal/mol]       15.154 [kJ/mol]       0.00577189 [Eh]
  Total G, Free enthalpy at  298.15 [K]                               -114.49663817 [Eh]

*** Psi4 exiting successfully. Buy a developer a beer!
