                               Psi4 1.3.2 release

  ==> Input File <==

--------------------------------------------------------------------------
memory 144 GB

molecule {
0 1
S 0.0000000000 0.0000000000 0.0000000000
C 0.0000000000 0.0000000000 1.2066000000
H 0.9369544103 0.0000000000 1.7870836544
H -0.9369544103 0.0000000000 1.7870836544
}

set dynamic_level 1
set basis cc-pV(T+d)Z

optimize("wB97M-V")
frequencies("wB97M-V")
--------------------------------------------------------------------------

    Molecular point group: c2v
  Charge       = 0
  Multiplicity = 1
  Basis Set: CC-PV(T+D)Z
    Blend: CC-PV(T+D)Z
  Basis Set: (CC-PV(T+D)Z AUX)
    Blend: CC-PVTZ-JKFIT
  @DF-RKS Final Energy:  -437.17915778886623
    Total Energy =                       -437.1791577888662346
    Molecular point group: c2v
  Basis Set: CC-PV(T+D)Z
    Blend: CC-PV(T+D)Z
  Basis Set: (CC-PV(T+D)Z AUX)
    Blend: CC-PVTZ-JKFIT
  @DF-RKS Final Energy:  -437.18081787933028
    Total Energy =                       -437.1808178793303341
  Basis Set: CC-PV(T+D)Z
    Blend: CC-PV(T+D)Z
  Basis Set: (CC-PV(T+D)Z AUX)
    Blend: CC-PVTZ-JKFIT
  @DF-RKS Final Energy:  -437.17748984459382
    Total Energy =                       -437.1774898445938220
  Basis Set: CC-PV(T+D)Z
    Blend: CC-PV(T+D)Z
  Basis Set: (CC-PV(T+D)Z AUX)
    Blend: CC-PVTZ-JKFIT
  @DF-RKS Final Energy:  -437.17875288794590
    Total Energy =                       -437.1787528879459046
  @DF-RKS Final Energy:  -437.17955800292310
    Total Energy =                       -437.1795580029230450
  @DF-RKS Final Energy:  -437.17920627864214
    Total Energy =                       -437.1792062786421980
  @DF-RKS Final Energy:  -437.17910330509119
    Total Energy =                       -437.1791033050912461
  @DF-RKS Final Energy:  -437.35929973035456
    Total Energy =                       -437.3592997303545076
  @DF-RKS Final Energy:  -437.36004912895515
    Total Energy =                       -437.3600491289551542
  @DF-RKS Final Energy:  -437.35854604386662
    Total Energy =                       -437.3585460438666246
  @DF-RKS Final Energy:  -437.35907007203423
    Total Energy =                       -437.3590700720342852
  @DF-RKS Final Energy:  -437.35952501823584
    Total Energy =                       -437.3595250182358996
  @DF-RKS Final Energy:  -437.35934417230402
    Total Energy =                       -437.3593441723039632
  @DF-RKS Final Energy:  -437.35924922384407
    Total Energy =                       -437.3592492238440741
  @DF-RKS Final Energy:  -437.42396916069055
    Total Energy =                       -437.4239691606905467
  @DF-RKS Final Energy:  -437.42430478813043
    Total Energy =                       -437.4243047881304278
  @DF-RKS Final Energy:  -437.42363090666043
    Total Energy =                       -437.4236309066604349
  @DF-RKS Final Energy:  -437.42384854041057
    Total Energy =                       -437.4238485404104608
  @DF-RKS Final Energy:  -437.42408546611938
    Total Energy =                       -437.4240854661194362
  @DF-RKS Final Energy:  -437.42397776700727
    Total Energy =                       -437.4239777670072726
  **** Optimization is complete! (in 9 steps) ****
    Final optimized geometry and variables:
  @DF-RKS Final Energy:  -437.45134384242738
    Total Energy =                       -437.4513438424273772
  @DF-RKS Final Energy:  -437.45134382593255
    Total Energy =                       -437.4513438259326108
  @DF-RKS Final Energy:  -437.45134736953963
    Total Energy =                       -437.4513473695396328
  @DF-RKS Final Energy:  -437.45134678904918
    Total Energy =                       -437.4513467890491825
  @DF-RKS Final Energy:  -437.45134673096095
    Total Energy =                       -437.4513467309609496
  @DF-RKS Final Energy:  -437.45134537772014
    Total Energy =                       -437.4513453777202017
  @DF-RKS Final Energy:  -437.45134530934922
    Total Energy =                       -437.4513453093491648
  @DF-RKS Final Energy:  -437.45134384242760
    Total Energy =                       -437.4513438424276615
  @DF-RKS Final Energy:  -437.45134382593267
    Total Energy =                       -437.4513438259326676
  @DF-RKS Final Energy:  -437.45134482562645
    Total Energy =                       -437.4513448256265065
  @DF-RKS Final Energy:  -437.45134495169964
    Total Energy =                       -437.4513449516995820
  @DF-RKS Final Energy:  -437.45134316970035
    Total Energy =                       -437.4513431697004080
  @DF-RKS Final Energy:  -437.45134324306434
    Total Energy =                       -437.4513432430643434
  @DF-RKS Final Energy:  -437.45134487025780
    Total Energy =                       -437.4513448702577421
  @DF-RKS Final Energy:  -437.45134497251269
    Total Energy =                       -437.4513449725127430
  @DF-RKS Final Energy:  -437.45134689069062
    Total Energy =                       -437.4513468906906155
  Basis Set: CC-PV(T+D)Z
    Blend: CC-PV(T+D)Z
  Basis Set: (CC-PV(T+D)Z AUX)
    Blend: CC-PVTZ-JKFIT
  @DF-RKS Final Energy:  -437.45134260779406
    Total Energy =                       -437.4513426077941176
  Basis Set: CC-PV(T+D)Z
    Blend: CC-PV(T+D)Z
  Basis Set: (CC-PV(T+D)Z AUX)
    Blend: CC-PVTZ-JKFIT
  @DF-RKS Final Energy:  -437.45134216065190
    Total Energy =                       -437.4513421606519046
  Multiplicity = 1
  Basis Set: CC-PV(T+D)Z
    Blend: CC-PV(T+D)Z
  Basis Set: (CC-PV(T+D)Z AUX)
    Blend: CC-PVTZ-JKFIT
  @DF-RKS Final Energy:  -437.45134216058568
    Total Energy =                       -437.4513421605856820
    Molecular point group: cs

    Geometry (in Angstrom), charge = 0, multiplicity = 1:

       Center              X                  Y                   Z               Mass
    ------------   -----------------  -----------------  -----------------  -----------------
         S            0.000000000000    -0.000036919942    -0.512250711273    31.972071174400
         C            0.000000000000     0.000370902443     1.085590714516    12.000000000000
         H            0.920587004696    -0.001622514920     1.662306213189     1.007825032230
         H           -0.920587004696    -0.001622514920     1.662306213189     1.007825032230

  Charge       = 0
  Multiplicity = 1
  Basis Set: CC-PV(T+D)Z
    Blend: CC-PV(T+D)Z
  Basis Set: (CC-PV(T+D)Z AUX)
    Blend: CC-PVTZ-JKFIT

    Orbital Energies [Eh]
    ---------------------

    Doubly Occupied:

       1Ap   -89.201474     2Ap   -10.414077     3Ap    -8.117180
       4Ap    -6.027383     5Ap    -6.025166     1App   -6.018096
       6Ap    -0.923023     7Ap    -0.714790     2App   -0.571410
       8Ap    -0.496053     9Ap    -0.416979     3App   -0.326085

  @DF-RKS Final Energy:  -437.45134685644240

   => Energetics <=

    Nuclear Repulsion Energy =             45.0975407806621860
    One-Electron Energy =                -691.5933429878307379
    Two-Electron Energy =                 232.9573080037143313
    DFT Exchange-Correlation Energy =     -24.0120895500274472
    Empirical Dispersion Energy =           0.0000000000000000
    VV10 Nonlocal Energy =                  0.0992368970393143
    Total Energy =                       -437.4513468564423988

  Dipole Moment: [D]
     X:     0.0000      Y:    -0.0026      Z:     1.6791     Total:     1.6791

  Vibration                       7                   8                   9
  Freq [cm^-1]                1006.0557           1041.4756           1126.9212
  Irrep                           B1                  B2                  A1
  Reduced mass [u]              1.2077              1.2955              4.2621
  Force const [mDyne/A]         0.7202              0.8279              3.1891

  Vibration                       10                  11                  12
  Freq [cm^-1]                1496.1999           3088.1259           3172.7440
  Irrep                           A1                  A1                  B1
  Reduced mass [u]              1.2110              1.0507              1.1192
  Force const [mDyne/A]         1.5972              5.9039              6.6377

  ==> Thermochemistry Components <==

  Entropy, S
    Electronic S            0.000 [cal/(mol K)]        0.000 [J/(mol K)]       0.00000000 [mEh/K] (multiplicity = 1)
    Translational S        37.403 [cal/(mol K)]      156.492 [J/(mol K)]       0.05960470 [mEh/K] (mol. weight = 45.9877 [u], P = 101325.00 [Pa])
    Rotational S           17.439 [cal/(mol K)]       72.966 [J/(mol K)]       0.02779119 [mEh/K] (symmetry no. = 2)
    Vibrational S           0.238 [cal/(mol K)]        0.997 [J/(mol K)]       0.00037962 [mEh/K]
  Total S                  55.080 [cal/(mol K)]      230.455 [J/(mol K)]       0.08777551 [mEh/K]
  Correction S              0.000 [cal/(mol K)]        0.000 [J/(mol K)]       0.00000000 [mEh/K]

  Constant volume heat capacity, Cv
    Electronic Cv           0.000 [cal/(mol K)]        0.000 [J/(mol K)]       0.00000000 [mEh/K]
    Translational Cv        2.981 [cal/(mol K)]       12.472 [J/(mol K)]       0.00475022 [mEh/K]
    Rotational Cv           2.981 [cal/(mol K)]       12.472 [J/(mol K)]       0.00475022 [mEh/K]
    Vibrational Cv          1.038 [cal/(mol K)]        4.345 [J/(mol K)]       0.00165492 [mEh/K]
  Total Cv                  7.000 [cal/(mol K)]       29.288 [J/(mol K)]       0.01115535 [mEh/K]
  Correction Cv             0.000 [cal/(mol K)]        0.000 [J/(mol K)]       0.00000000 [mEh/K]

  Constant pressure heat capacity, Cp
    Electronic Cp           0.000 [cal/(mol K)]        0.000 [J/(mol K)]       0.00000000 [mEh/K]
    Translational Cp        4.968 [cal/(mol K)]       20.786 [J/(mol K)]       0.00791703 [mEh/K]
    Rotational Cp           2.981 [cal/(mol K)]       12.472 [J/(mol K)]       0.00475022 [mEh/K]
    Vibrational Cp          1.038 [cal/(mol K)]        4.345 [J/(mol K)]       0.00165492 [mEh/K]
  Total Cp                  8.987 [cal/(mol K)]       37.603 [J/(mol K)]       0.01432216 [mEh/K]
  Correction Cp             0.000 [cal/(mol K)]        0.000 [J/(mol K)]       0.00000000 [mEh/K]

  ==> Thermochemistry Energy Analysis <==

  Raw electronic energy, E0
  Total E0, Electronic energy at well bottom at 0 [K]                 -437.45134737 [Eh]

  Zero-point energy, ZPE_vib = Sum_i nu_i / 2
    Electronic ZPE          0.000 [kcal/mol]        0.000 [kJ/mol]       0.00000000 [Eh]
    Translational ZPE       0.000 [kcal/mol]        0.000 [kJ/mol]       0.00000000 [Eh]
    Rotational ZPE          0.000 [kcal/mol]        0.000 [kJ/mol]       0.00000000 [Eh]
    Vibrational ZPE        15.627 [kcal/mol]       65.385 [kJ/mol]       0.02490384 [Eh]        5465.761 [cm^-1]
  Correction ZPE           15.627 [kcal/mol]       65.385 [kJ/mol]       0.02490384 [Eh]        5465.761 [cm^-1]
  Total ZPE, Electronic energy at 0 [K]                               -437.42644353 [Eh]

  Thermal Energy, E (includes ZPE)
    Electronic E            0.000 [kcal/mol]        0.000 [kJ/mol]       0.00000000 [Eh]
    Translational E         0.889 [kcal/mol]        3.718 [kJ/mol]       0.00141628 [Eh]
    Rotational E            0.889 [kcal/mol]        3.718 [kJ/mol]       0.00141628 [Eh]
    Vibrational E          15.687 [kcal/mol]       65.634 [kJ/mol]       0.02499861 [Eh]
  Correction E             17.464 [kcal/mol]       73.071 [kJ/mol]       0.02783117 [Eh]
  Total E, Electronic energy at  298.15 [K]                           -437.42351620 [Eh]

  Enthalpy, H_trans = E_trans + k_B * T
    Electronic H            0.000 [kcal/mol]        0.000 [kJ/mol]       0.00000000 [Eh]
    Translational H         1.481 [kcal/mol]        6.197 [kJ/mol]       0.00236046 [Eh]
    Rotational H            0.889 [kcal/mol]        3.718 [kJ/mol]       0.00141628 [Eh]
    Vibrational H          15.687 [kcal/mol]       65.634 [kJ/mol]       0.02499861 [Eh]
  Correction H             18.057 [kcal/mol]       75.550 [kJ/mol]       0.02877535 [Eh]
  Total H, Enthalpy at  298.15 [K]                                    -437.42257202 [Eh]

  Gibbs free energy, G = H - T * S
    Electronic G            0.000 [kcal/mol]        0.000 [kJ/mol]       0.00000000 [Eh]
    Translational G        -9.670 [kcal/mol]      -40.461 [kJ/mol]      -0.01541068 [Eh]
    Rotational G           -4.311 [kcal/mol]      -18.036 [kJ/mol]      -0.00686967 [Eh]
    Vibrational G          15.616 [kcal/mol]       65.337 [kJ/mol]       0.02488543 [Eh]
  Correction G              1.635 [kcal/mol]        6.840 [kJ/mol]       0.00260508 [Eh]
  Total G, Free enthalpy at  298.15 [K]                               -437.44874229 [Eh]

*** Psi4 exiting successfully. Buy a developer a beer!
