                               Psi4 1.3.2 release

  ==> Input File <==

--------------------------------------------------------------------------
memory 144 GB

molecule {
0 1
O 0.0000000000 0.0000000000 0.0000000000
H 0.0000000000 0.0000000000 0.9579000000
H 0.9289588892 0.0000000000 -0.2336831018
}

set dynamic_level 1
set basis cc-pV(T+d)Z

optimize("wB97M-V")
frequencies("wB97M-V")
--------------------------------------------------------------------------

    Molecular point group: c2v
  Charge       = 0
  Multiplicity = 1
  Basis Set: CC-PV(T+D)Z
    Blend: CC-PV(T+D)Z
  Basis Set: (CC-PV(T+D)Z AUX)
    Blend: CC-PVTZ-JKFIT
  @DF-RKS Final Energy:   -76.42603556839917
    Total Energy =                        -76.4260355683991719
    Molecular point group: c2v
  Basis Set: CC-PV(T+D)Z
    Blend: CC-PV(T+D)Z
  Basis Set: (CC-PV(T+D)Z AUX)
    Blend: CC-PVTZ-JKFIT
  @DF-RKS Final Energy:   -76.42604039093644
    Total Energy =                        -76.4260403909364356
  Basis Set: CC-PV(T+D)Z
    Blend: CC-PV(T+D)Z
  Basis Set: (CC-PV(T+D)Z AUX)
    Blend: CC-PVTZ-JKFIT
  @DF-RKS Final Energy:   -76.42602425303208
    Total Energy =                        -76.4260242530320824
  Basis Set: CC-PV(T+D)Z
    Blend: CC-PV(T+D)Z
  Basis Set: (CC-PV(T+D)Z AUX)
    Blend: CC-PVTZ-JKFIT
  @DF-RKS Final Energy:   -76.42601643791602
    Total Energy =                        -76.4260164379160187
  @DF-RKS Final Energy:   -76.42604454547994
    Total Energy =                        -76.4260445454799253
  @DF-RKS Final Energy:   -76.42604514790645
    Total Energy =                        -76.4260451479064500
  @DF-RKS Final Energy:   -76.42604249757589
    Total Energy =                        -76.4260424975758781
  @DF-RKS Final Energy:   -76.42604139184688
    Total Energy =                        -76.4260413918468799
  @DF-RKS Final Energy:   -76.42604105294136
    Total Energy =                        -76.4260410529413718
  @DF-RKS Final Energy:   -76.42603920815644
    Total Energy =                        -76.4260392081564390
  @DF-RKS Final Energy:   -76.42604534622892
    Total Energy =                        -76.4260453462289178
  @DF-RKS Final Energy:   -76.42604226415258
    Total Energy =                        -76.4260422641525992
  @DF-RKS Final Energy:   -76.42604201377161
    Total Energy =                        -76.4260420137716068
  @DF-RKS Final Energy:   -76.42604032014424
    Total Energy =                        -76.4260403201442529
  @DF-RKS Final Energy:   -76.42604033839753
    Total Energy =                        -76.4260403383975131
  **** Optimization is complete! (in 3 steps) ****
    Final optimized geometry and variables:
  @DF-RKS Final Energy:   -76.42604534622890
    Total Energy =                        -76.4260453462289036
  @DF-RKS Final Energy:   -76.42604226415253
    Total Energy =                        -76.4260422641525423
  @DF-RKS Final Energy:   -76.42604201377161
    Total Energy =                        -76.4260420137716068
  @DF-RKS Final Energy:   -76.42604032014428
    Total Energy =                        -76.4260403201442813
  @DF-RKS Final Energy:   -76.42604033839748
    Total Energy =                        -76.4260403383974989
  @DF-RKS Final Energy:   -76.42604534622896
    Total Energy =                        -76.4260453462289462
  @DF-RKS Final Energy:   -76.42604226415257
    Total Energy =                        -76.4260422641525707
  @DF-RKS Final Energy:   -76.42604201377158
    Total Energy =                        -76.4260420137715784
  @DF-RKS Final Energy:   -76.42604032014424
    Total Energy =                        -76.4260403201442244
  Basis Set: CC-PV(T+D)Z
    Blend: CC-PV(T+D)Z
  Basis Set: (CC-PV(T+D)Z AUX)
    Blend: CC-PVTZ-JKFIT
  @DF-RKS Final Energy:   -76.42604033839756
    Total Energy =                        -76.4260403383975699
  Basis Set: CC-PV(T+D)Z
    Blend: CC-PV(T+D)Z
  Basis Set: (CC-PV(T+D)Z AUX)
    Blend: CC-PVTZ-JKFIT
  @DF-RKS Final Energy:   -76.42604237770234
    Total Energy =                        -76.4260423777023590
  Multiplicity = 1
  Basis Set: CC-PV(T+D)Z
    Blend: CC-PV(T+D)Z
  Basis Set: (CC-PV(T+D)Z AUX)
    Blend: CC-PVTZ-JKFIT
  @DF-RKS Final Energy:   -76.42604262987058
    Total Energy =                        -76.4260426298705937
    Molecular point group: cs

    Geometry (in Angstrom), charge = 0, multiplicity = 1:

       Center              X                  Y                   Z               Mass
    ------------   -----------------  -----------------  -----------------  -----------------
         O            0.000000000000    -0.000178542652    -0.065936240946    15.994914619570
         H            0.000000000000     0.759354525901     0.524329311371     1.007825032230
         H            0.000000000000    -0.756520924451     0.522126681021     1.007825032230

  Charge       = 0
  Multiplicity = 1
  Basis Set: CC-PV(T+D)Z
    Blend: CC-PV(T+D)Z
  Basis Set: (CC-PV(T+D)Z AUX)
    Blend: CC-PVTZ-JKFIT

    Orbital Energies [Eh]
    ---------------------

    Doubly Occupied:

       1Ap   -19.321664     2Ap    -1.131217     3Ap    -0.629283
       4Ap    -0.490576     1App   -0.414400

  @DF-RKS Final Energy:   -76.42603802765301

   => Energetics <=

    Nuclear Repulsion Energy =              9.1688218790436959
    One-Electron Energy =                -123.0662903997035897
    Two-Electron Energy =                  44.0949223501836940
    DFT Exchange-Correlation Energy =      -6.6660915600522568
    Empirical Dispersion Energy =           0.0000000000000000
    VV10 Nonlocal Energy =                  0.0425997028754581
    Total Energy =                        -76.4260380276529929

  Dipole Moment: [D]
     X:     0.0000      Y:     0.0026      Z:     1.9135     Total:     1.9135

  Vibration                       7                   8                   9
  Freq [cm^-1]                1640.5560           3833.3184           3933.3497
  Irrep                           A1                  A1                  B2
  Reduced mass [u]              1.0827              1.0452              1.0816
  Force const [mDyne/A]         1.7169              9.0486              9.8596

  ==> Thermochemistry Components <==

  Entropy, S
    Electronic S            0.000 [cal/(mol K)]        0.000 [J/(mol K)]       0.00000000 [mEh/K] (multiplicity = 1)
    Translational S        34.608 [cal/(mol K)]      144.801 [J/(mol K)]       0.05515177 [mEh/K] (mol. weight = 18.0106 [u], P = 101325.00 [Pa])
    Rotational S           10.465 [cal/(mol K)]       43.786 [J/(mol K)]       0.01667711 [mEh/K] (symmetry no. = 2)
    Vibrational S           0.006 [cal/(mol K)]        0.027 [J/(mol K)]       0.00001030 [mEh/K]
  Total S                  45.080 [cal/(mol K)]      188.614 [J/(mol K)]       0.07183918 [mEh/K]
  Correction S              0.000 [cal/(mol K)]        0.000 [J/(mol K)]       0.00000000 [mEh/K]

  Constant volume heat capacity, Cv
    Electronic Cv           0.000 [cal/(mol K)]        0.000 [J/(mol K)]       0.00000000 [mEh/K]
    Translational Cv        2.981 [cal/(mol K)]       12.472 [J/(mol K)]       0.00475022 [mEh/K]
    Rotational Cv           2.981 [cal/(mol K)]       12.472 [J/(mol K)]       0.00475022 [mEh/K]
    Vibrational Cv          0.045 [cal/(mol K)]        0.190 [J/(mol K)]       0.00007243 [mEh/K]
  Total Cv                  6.007 [cal/(mol K)]       25.134 [J/(mol K)]       0.00957286 [mEh/K]
  Correction Cv             0.000 [cal/(mol K)]        0.000 [J/(mol K)]       0.00000000 [mEh/K]

  Constant pressure heat capacity, Cp
    Electronic Cp           0.000 [cal/(mol K)]        0.000 [J/(mol K)]       0.00000000 [mEh/K]
    Translational Cp        4.968 [cal/(mol K)]       20.786 [J/(mol K)]       0.00791703 [mEh/K]
    Rotational Cp           2.981 [cal/(mol K)]       12.472 [J/(mol K)]       0.00475022 [mEh/K]
    Vibrational Cp          0.045 [cal/(mol K)]        0.190 [J/(mol K)]       0.00007243 [mEh/K]
  Total Cp                  7.994 [cal/(mol K)]       33.448 [J/(mol K)]       0.01273967 [mEh/K]
  Correction Cp             0.000 [cal/(mol K)]        0.000 [J/(mol K)]       0.00000000 [mEh/K]

  ==> Thermochemistry Energy Analysis <==

  Raw electronic energy, E0
  Total E0, Electronic energy at well bottom at 0 [K]                  -76.42604535 [Eh]

  Zero-point energy, ZPE_vib = Sum_i nu_i / 2
    Electronic ZPE          0.000 [kcal/mol]        0.000 [kJ/mol]       0.00000000 [Eh]
    Translational ZPE       0.000 [kcal/mol]        0.000 [kJ/mol]       0.00000000 [Eh]
    Rotational ZPE          0.000 [kcal/mol]        0.000 [kJ/mol]       0.00000000 [Eh]
    Vibrational ZPE        13.448 [kcal/mol]       56.268 [kJ/mol]       0.02143123 [Eh]        4703.612 [cm^-1]
  Correction ZPE           13.448 [kcal/mol]       56.268 [kJ/mol]       0.02143123 [Eh]        4703.612 [cm^-1]
  Total ZPE, Electronic energy at 0 [K]                                -76.40461411 [Eh]

  Thermal Energy, E (includes ZPE)
    Electronic E            0.000 [kcal/mol]        0.000 [kJ/mol]       0.00000000 [Eh]
    Translational E         0.889 [kcal/mol]        3.718 [kJ/mol]       0.00141628 [Eh]
    Rotational E            0.889 [kcal/mol]        3.718 [kJ/mol]       0.00141628 [Eh]
    Vibrational E          13.450 [kcal/mol]       56.275 [kJ/mol]       0.02143396 [Eh]
  Correction E             15.227 [kcal/mol]       63.712 [kJ/mol]       0.02426651 [Eh]
  Total E, Electronic energy at  298.15 [K]                            -76.40177883 [Eh]

  Enthalpy, H_trans = E_trans + k_B * T
    Electronic H            0.000 [kcal/mol]        0.000 [kJ/mol]       0.00000000 [Eh]
    Translational H         1.481 [kcal/mol]        6.197 [kJ/mol]       0.00236046 [Eh]
    Rotational H            0.889 [kcal/mol]        3.718 [kJ/mol]       0.00141628 [Eh]
    Vibrational H          13.450 [kcal/mol]       56.275 [kJ/mol]       0.02143396 [Eh]
  Correction H             15.820 [kcal/mol]       66.191 [kJ/mol]       0.02521070 [Eh]
  Total H, Enthalpy at  298.15 [K]                                     -76.40083465 [Eh]

  Gibbs free energy, G = H - T * S
    Electronic G            0.000 [kcal/mol]        0.000 [kJ/mol]       0.00000000 [Eh]
    Translational G        -8.837 [kcal/mol]      -36.975 [kJ/mol]      -0.01408304 [Eh]
    Rotational G           -2.231 [kcal/mol]       -9.336 [kJ/mol]      -0.00355600 [Eh]
    Vibrational G          13.448 [kcal/mol]       56.267 [kJ/mol]       0.02143089 [Eh]
  Correction G              2.379 [kcal/mol]        9.955 [kJ/mol]       0.00379184 [Eh]
  Total G, Free enthalpy at  298.15 [K]                                -76.42225350 [Eh]

*** Psi4 exiting successfully. Buy a developer a beer!
