                               Psi4 1.3.2 release

  ==> Input File <==

--------------------------------------------------------------------------
memory 144 GB

molecule {
0 1
S 0.0000000000 0.0000000000 0.0000000000
H 0.0000000000 0.0000000000 1.3377284100
H 1.3366219004 0.0000000000 -0.0543984776
}

set dynamic_level 1
set basis cc-pV(T+d)Z

optimize("wB97M-V")
frequencies("wB97M-V")
--------------------------------------------------------------------------

    Molecular point group: c2v
  Charge       = 0
  Multiplicity = 1
  Basis Set: CC-PV(T+D)Z
    Blend: CC-PV(T+D)Z
  Basis Set: (CC-PV(T+D)Z AUX)
    Blend: CC-PVTZ-JKFIT
  @DF-RKS Final Energy:  -399.38047412835806
    Total Energy =                       -399.3804741283580597
    Molecular point group: c2v
  Basis Set: CC-PV(T+D)Z
    Blend: CC-PV(T+D)Z
  Basis Set: (CC-PV(T+D)Z AUX)
    Blend: CC-PVTZ-JKFIT
  @DF-RKS Final Energy:  -399.38047193178676
    Total Energy =                       -399.3804719317867580
  Basis Set: CC-PV(T+D)Z
    Blend: CC-PV(T+D)Z
  Basis Set: (CC-PV(T+D)Z AUX)
    Blend: CC-PVTZ-JKFIT
  @DF-RKS Final Energy:  -399.38047227210126
    Total Energy =                       -399.3804722721012581
  Basis Set: CC-PV(T+D)Z
    Blend: CC-PV(T+D)Z
  Basis Set: (CC-PV(T+D)Z AUX)
    Blend: CC-PVTZ-JKFIT
  @DF-RKS Final Energy:  -399.38047306064897
    Total Energy =                       -399.3804730606489670
  @DF-RKS Final Energy:  -399.38047081511428
    Total Energy =                       -399.3804708151143359
  @DF-RKS Final Energy:  -399.38047433879939
    Total Energy =                       -399.3804743387994449
  @DF-RKS Final Energy:  -399.38047234169790
    Total Energy =                       -399.3804723416978391
  @DF-RKS Final Energy:  -399.38047227625367
    Total Energy =                       -399.3804722762536699
  @DF-RKS Final Energy:  -399.38047200002455
    Total Energy =                       -399.3804720000245538
  @DF-RKS Final Energy:  -399.38047229334808
    Total Energy =                       -399.3804722933480207
  **** Optimization is complete! (in 2 steps) ****
    Final optimized geometry and variables:
  @DF-RKS Final Energy:  -399.38047433879939
    Total Energy =                       -399.3804743387993881
  @DF-RKS Final Energy:  -399.38047234169773
    Total Energy =                       -399.3804723416977254
  @DF-RKS Final Energy:  -399.38047227625378
    Total Energy =                       -399.3804722762537267
  @DF-RKS Final Energy:  -399.38047200002404
    Total Energy =                       -399.3804720000240422
  @DF-RKS Final Energy:  -399.38047229334762
    Total Energy =                       -399.3804722933475659
  @DF-RKS Final Energy:  -399.38047433879962
    Total Energy =                       -399.3804743387996723
  @DF-RKS Final Energy:  -399.38047234169795
    Total Energy =                       -399.3804723416978959
  @DF-RKS Final Energy:  -399.38047227625378
    Total Energy =                       -399.3804722762537835
  @DF-RKS Final Energy:  -399.38047200002410
    Total Energy =                       -399.3804720000240991
  Basis Set: CC-PV(T+D)Z
    Blend: CC-PV(T+D)Z
  Basis Set: (CC-PV(T+D)Z AUX)
    Blend: CC-PVTZ-JKFIT
  @DF-RKS Final Energy:  -399.38047229334791
    Total Energy =                       -399.3804722933479070
  Basis Set: CC-PV(T+D)Z
    Blend: CC-PV(T+D)Z
  Basis Set: (CC-PV(T+D)Z AUX)
    Blend: CC-PVTZ-JKFIT
  @DF-RKS Final Energy:  -399.38047306224428
    Total Energy =                       -399.3804730622442207
  Multiplicity = 1
  Basis Set: CC-PV(T+D)Z
    Blend: CC-PV(T+D)Z
  Basis Set: (CC-PV(T+D)Z AUX)
    Blend: CC-PVTZ-JKFIT
  @DF-RKS Final Energy:  -399.38047283582256
    Total Energy =                       -399.3804728358226157
    Molecular point group: cs

    Geometry (in Angstrom), charge = 0, multiplicity = 1:

       Center              X                  Y                   Z               Mass
    ------------   -----------------  -----------------  -----------------  -----------------
         S            0.000000000000    -0.000083337604    -0.054976912043    31.972071174400
         H            0.000000000000     0.965407139549     0.873310205087     1.007825032230
         H            0.000000000000    -0.962763351477     0.870768070989     1.007825032230

  Charge       = 0
  Multiplicity = 1
  Basis Set: CC-PV(T+D)Z
    Blend: CC-PV(T+D)Z
  Basis Set: (CC-PV(T+D)Z AUX)
    Blend: CC-PVTZ-JKFIT

    Orbital Energies [Eh]
    ---------------------

    Doubly Occupied:

       1Ap   -89.205470     2Ap    -8.121861     3Ap    -6.031905
       4Ap    -6.029117     1App   -6.023645     5Ap    -0.860270
       6Ap    -0.540763     7Ap    -0.463966     2App   -0.357999

  @DF-RKS Final Energy:  -399.38047082675547

   => Energetics <=

    Nuclear Repulsion Energy =             12.9354671245530497
    One-Electron Energy =                -576.7767982386836820
    Two-Electron Energy =                 184.5462344033465172
    DFT Exchange-Correlation Energy =     -20.1611205034812677
    Empirical Dispersion Energy =           0.0000000000000000
    VV10 Nonlocal Energy =                  0.0757463875098935
    Total Energy =                       -399.3804708267555270

  Dipole Moment: [D]
     X:     0.0000      Y:    -0.0003      Z:     1.0555     Total:     1.0555

  Vibration                       7                   8                   9
  Freq [cm^-1]                1209.9795           2724.7663           2731.4818
  Irrep                           A1                  B2                  A1
  Reduced mass [u]              1.0394              1.0398              1.0359
  Force const [mDyne/A]         0.8966              4.5482              4.5536

  ==> Thermochemistry Components <==

  Entropy, S
    Electronic S            0.000 [cal/(mol K)]        0.000 [J/(mol K)]       0.00000000 [mEh/K] (multiplicity = 1)
    Translational S        36.501 [cal/(mol K)]      152.721 [J/(mol K)]       0.05816835 [mEh/K] (mol. weight = 33.9877 [u], P = 101325.00 [Pa])
    Rotational S           12.574 [cal/(mol K)]       52.610 [J/(mol K)]       0.02003808 [mEh/K] (symmetry no. = 2)
    Vibrational S           0.040 [cal/(mol K)]        0.166 [J/(mol K)]       0.00006341 [mEh/K]
  Total S                  49.115 [cal/(mol K)]      205.497 [J/(mol K)]       0.07826984 [mEh/K]
  Correction S              0.000 [cal/(mol K)]        0.000 [J/(mol K)]       0.00000000 [mEh/K]

  Constant volume heat capacity, Cv
    Electronic Cv           0.000 [cal/(mol K)]        0.000 [J/(mol K)]       0.00000000 [mEh/K]
    Translational Cv        2.981 [cal/(mol K)]       12.472 [J/(mol K)]       0.00475022 [mEh/K]
    Rotational Cv           2.981 [cal/(mol K)]       12.472 [J/(mol K)]       0.00475022 [mEh/K]
    Vibrational Cv          0.200 [cal/(mol K)]        0.836 [J/(mol K)]       0.00031833 [mEh/K]
  Total Cv                  6.161 [cal/(mol K)]       25.779 [J/(mol K)]       0.00981876 [mEh/K]
  Correction Cv             0.000 [cal/(mol K)]        0.000 [J/(mol K)]       0.00000000 [mEh/K]

  Constant pressure heat capacity, Cp
    Electronic Cp           0.000 [cal/(mol K)]        0.000 [J/(mol K)]       0.00000000 [mEh/K]
    Translational Cp        4.968 [cal/(mol K)]       20.786 [J/(mol K)]       0.00791703 [mEh/K]
    Rotational Cp           2.981 [cal/(mol K)]       12.472 [J/(mol K)]       0.00475022 [mEh/K]
    Vibrational Cp          0.200 [cal/(mol K)]        0.836 [J/(mol K)]       0.00031833 [mEh/K]
  Total Cp                  8.149 [cal/(mol K)]       34.094 [J/(mol K)]       0.01298557 [mEh/K]
  Correction Cp             0.000 [cal/(mol K)]        0.000 [J/(mol K)]       0.00000000 [mEh/K]

  ==> Thermochemistry Energy Analysis <==

  Raw electronic energy, E0
  Total E0, Electronic energy at well bottom at 0 [K]                 -399.38047434 [Eh]

  Zero-point energy, ZPE_vib = Sum_i nu_i / 2
    Electronic ZPE          0.000 [kcal/mol]        0.000 [kJ/mol]       0.00000000 [Eh]
    Translational ZPE       0.000 [kcal/mol]        0.000 [kJ/mol]       0.00000000 [Eh]
    Rotational ZPE          0.000 [kcal/mol]        0.000 [kJ/mol]       0.00000000 [Eh]
    Vibrational ZPE         9.530 [kcal/mol]       39.873 [kJ/mol]       0.01518678 [Eh]        3333.114 [cm^-1]
  Correction ZPE            9.530 [kcal/mol]       39.873 [kJ/mol]       0.01518678 [Eh]        3333.114 [cm^-1]
  Total ZPE, Electronic energy at 0 [K]                               -399.36528756 [Eh]

  Thermal Energy, E (includes ZPE)
    Electronic E            0.000 [kcal/mol]        0.000 [kJ/mol]       0.00000000 [Eh]
    Translational E         0.889 [kcal/mol]        3.718 [kJ/mol]       0.00141628 [Eh]
    Rotational E            0.889 [kcal/mol]        3.718 [kJ/mol]       0.00141628 [Eh]
    Vibrational E           9.540 [kcal/mol]       39.915 [kJ/mol]       0.01520293 [Eh]
  Correction E             11.317 [kcal/mol]       47.352 [kJ/mol]       0.01803549 [Eh]
  Total E, Electronic energy at  298.15 [K]                           -399.36243885 [Eh]

  Enthalpy, H_trans = E_trans + k_B * T
    Electronic H            0.000 [kcal/mol]        0.000 [kJ/mol]       0.00000000 [Eh]
    Translational H         1.481 [kcal/mol]        6.197 [kJ/mol]       0.00236046 [Eh]
    Rotational H            0.889 [kcal/mol]        3.718 [kJ/mol]       0.00141628 [Eh]
    Vibrational H           9.540 [kcal/mol]       39.915 [kJ/mol]       0.01520293 [Eh]
  Correction H             11.910 [kcal/mol]       49.831 [kJ/mol]       0.01897967 [Eh]
  Total H, Enthalpy at  298.15 [K]                                    -399.36149467 [Eh]

  Gibbs free energy, G = H - T * S
    Electronic G            0.000 [kcal/mol]        0.000 [kJ/mol]       0.00000000 [Eh]
    Translational G        -9.402 [kcal/mol]      -39.336 [kJ/mol]      -0.01498243 [Eh]
    Rotational G           -2.860 [kcal/mol]      -11.967 [kJ/mol]      -0.00455808 [Eh]
    Vibrational G           9.528 [kcal/mol]       39.866 [kJ/mol]       0.01518403 [Eh]
  Correction G             -2.734 [kcal/mol]      -11.438 [kJ/mol]      -0.00435648 [Eh]
  Total G, Free enthalpy at  298.15 [K]                               -399.38483082 [Eh]

*** Psi4 exiting successfully. Buy a developer a beer!
