                               Psi4 1.3.2 release

  ==> Input File <==

--------------------------------------------------------------------------
memory 144 GB

molecule {
0 1
Cl 0.0000000000 0.0000000000 0.0000000000
H 0.0000000000 0.0000000000 1.2756042300
}

set dynamic_level 1
set basis cc-pV(T+d)Z

optimize("wB97M-V")
frequencies("wB97M-V")
--------------------------------------------------------------------------

    Molecular point group: c2v
  Charge       = 0
  Multiplicity = 1
  Basis Set: CC-PV(T+D)Z
    Blend: CC-PV(T+D)Z
  Basis Set: (CC-PV(T+D)Z AUX)
    Blend: CC-PVTZ-JKFIT
  @DF-RKS Final Energy:  -460.79848862431311
    Total Energy =                       -460.7984886243130518
    Molecular point group: c2v
  Basis Set: CC-PV(T+D)Z
    Blend: CC-PV(T+D)Z
  Basis Set: (CC-PV(T+D)Z AUX)
    Blend: CC-PVTZ-JKFIT
  @DF-RKS Final Energy:  -460.79848950367312
    Total Energy =                       -460.7984895036731814
  Basis Set: CC-PV(T+D)Z
    Blend: CC-PV(T+D)Z
  Basis Set: (CC-PV(T+D)Z AUX)
    Blend: CC-PVTZ-JKFIT
  @DF-RKS Final Energy:  -460.79847918551388
    Total Energy =                       -460.7984791855138837
  Basis Set: CC-PV(T+D)Z
    Blend: CC-PV(T+D)Z
  Basis Set: (CC-PV(T+D)Z AUX)
    Blend: CC-PVTZ-JKFIT
  @DF-RKS Final Energy:  -460.79849016904103
    Total Energy =                       -460.7984901690410311
  @DF-RKS Final Energy:  -460.79848575862917
    Total Energy =                       -460.7984857586291128
  @DF-RKS Final Energy:  -460.79848609768243
    Total Energy =                       -460.7984860976824280
  **** Optimization is complete! (in 2 steps) ****
    Final optimized geometry and variables:
  @DF-RKS Final Energy:  -460.79849016904069
    Total Energy =                       -460.7984901690406900
  @DF-RKS Final Energy:  -460.79848575862894
    Total Energy =                       -460.7984857586289422
  Basis Set: CC-PV(T+D)Z
    Blend: CC-PV(T+D)Z
  Basis Set: (CC-PV(T+D)Z AUX)
    Blend: CC-PVTZ-JKFIT
  @DF-RKS Final Energy:  -460.79848609768266
    Total Energy =                       -460.7984860976825416
  Basis Set: CC-PV(T+D)Z
    Blend: CC-PV(T+D)Z
  Basis Set: (CC-PV(T+D)Z AUX)
    Blend: CC-PVTZ-JKFIT
  @DF-RKS Final Energy:  -460.79849016904069
    Total Energy =                       -460.7984901690406900
  Multiplicity = 1
  Basis Set: CC-PV(T+D)Z
    Blend: CC-PV(T+D)Z
  Basis Set: (CC-PV(T+D)Z AUX)
    Blend: CC-PVTZ-JKFIT
  @DF-RKS Final Energy:  -460.79848575862917
    Total Energy =                       -460.7984857586291128
    Molecular point group: c2v

    Geometry (in Angstrom), charge = 0, multiplicity = 1:

       Center              X                  Y                   Z               Mass
    ------------   -----------------  -----------------  -----------------  -----------------
         CL           0.000000000000     0.000000000000    -0.035705813867    34.968852682000
         H            0.000000000000     0.000000000000     1.238896936533     1.007825032230

  Charge       = 0
  Multiplicity = 1
  Basis Set: CC-PV(T+D)Z
    Blend: CC-PV(T+D)Z
  Basis Set: (CC-PV(T+D)Z AUX)
    Blend: CC-PVTZ-JKFIT

    Orbital Energies [Eh]
    ---------------------

    Doubly Occupied:

       1A1  -101.894417     2A1    -9.653810     3A1    -7.358334
       1B2    -7.350434     1B1    -7.350434     4A1    -0.965249
       5A1    -0.571618     2B1    -0.432162     2B2    -0.432162

  @DF-RKS Final Energy:  -460.79848609768260

   => Energetics <=

    Nuclear Repulsion Energy =              7.0578951587635173
    One-Electron Energy =                -649.9494878346072255
    Two-Electron Energy =                 204.0274320147730975
    DFT Exchange-Correlation Energy =     -22.0107291169213930
    Empirical Dispersion Energy =           0.0000000000000000
    VV10 Nonlocal Energy =                  0.0764036803094280
    Total Energy =                       -460.7984860976825416

  Dipole Moment: [D]
     X:     0.0000      Y:     0.0000      Z:     1.1795     Total:     1.1795

  Vibration                       6
  Freq [cm^-1]                2994.1773
  Irrep                           A1
  Reduced mass [u]              1.0360
  Force const [mDyne/A]         5.4723

  ==> Thermochemistry Components <==

  Entropy, S
    Electronic S            0.000 [cal/(mol K)]        0.000 [J/(mol K)]       0.00000000 [mEh/K] (multiplicity = 1)
    Translational S        36.671 [cal/(mol K)]      153.430 [J/(mol K)]       0.05843851 [mEh/K] (mol. weight = 35.9767 [u], P = 101325.00 [Pa])
    Rotational S            7.905 [cal/(mol K)]       33.074 [J/(mol K)]       0.01259707 [mEh/K] (symmetry no. = 1)
    Vibrational S           0.000 [cal/(mol K)]        0.000 [J/(mol K)]       0.00000003 [mEh/K]
  Total S                  44.576 [cal/(mol K)]      186.504 [J/(mol K)]       0.07103560 [mEh/K]
  Correction S              0.000 [cal/(mol K)]        0.000 [J/(mol K)]       0.00000000 [mEh/K]

  Constant volume heat capacity, Cv
    Electronic Cv           0.000 [cal/(mol K)]        0.000 [J/(mol K)]       0.00000000 [mEh/K]
    Translational Cv        2.981 [cal/(mol K)]       12.472 [J/(mol K)]       0.00475022 [mEh/K]
    Rotational Cv           1.987 [cal/(mol K)]        8.314 [J/(mol K)]       0.00316681 [mEh/K]
    Vibrational Cv          0.000 [cal/(mol K)]        0.001 [J/(mol K)]       0.00000035 [mEh/K]
  Total Cv                  4.968 [cal/(mol K)]       20.787 [J/(mol K)]       0.00791738 [mEh/K]
  Correction Cv             0.000 [cal/(mol K)]        0.000 [J/(mol K)]       0.00000000 [mEh/K]

  Constant pressure heat capacity, Cp
    Electronic Cp           0.000 [cal/(mol K)]        0.000 [J/(mol K)]       0.00000000 [mEh/K]
    Translational Cp        4.968 [cal/(mol K)]       20.786 [J/(mol K)]       0.00791703 [mEh/K]
    Rotational Cp           1.987 [cal/(mol K)]        8.314 [J/(mol K)]       0.00316681 [mEh/K]
    Vibrational Cp          0.000 [cal/(mol K)]        0.001 [J/(mol K)]       0.00000035 [mEh/K]
  Total Cp                  6.955 [cal/(mol K)]       29.102 [J/(mol K)]       0.01108419 [mEh/K]
  Correction Cp             0.000 [cal/(mol K)]        0.000 [J/(mol K)]       0.00000000 [mEh/K]

  ==> Thermochemistry Energy Analysis <==

  Raw electronic energy, E0
  Total E0, Electronic energy at well bottom at 0 [K]                 -460.79849017 [Eh]

  Zero-point energy, ZPE_vib = Sum_i nu_i / 2
    Electronic ZPE          0.000 [kcal/mol]        0.000 [kJ/mol]       0.00000000 [Eh]
    Translational ZPE       0.000 [kcal/mol]        0.000 [kJ/mol]       0.00000000 [Eh]
    Rotational ZPE          0.000 [kcal/mol]        0.000 [kJ/mol]       0.00000000 [Eh]
    Vibrational ZPE         4.280 [kcal/mol]       17.909 [kJ/mol]       0.00682124 [Eh]        1497.089 [cm^-1]
  Correction ZPE            4.280 [kcal/mol]       17.909 [kJ/mol]       0.00682124 [Eh]        1497.089 [cm^-1]
  Total ZPE, Electronic energy at 0 [K]                               -460.79166893 [Eh]

  Thermal Energy, E (includes ZPE)
    Electronic E            0.000 [kcal/mol]        0.000 [kJ/mol]       0.00000000 [Eh]
    Translational E         0.889 [kcal/mol]        3.718 [kJ/mol]       0.00141628 [Eh]
    Rotational E            0.592 [kcal/mol]        2.479 [kJ/mol]       0.00094418 [Eh]
    Vibrational E           4.280 [kcal/mol]       17.909 [kJ/mol]       0.00682124 [Eh]
  Correction E              5.762 [kcal/mol]       24.107 [kJ/mol]       0.00918171 [Eh]
  Total E, Electronic energy at  298.15 [K]                           -460.78930846 [Eh]

  Enthalpy, H_trans = E_trans + k_B * T
    Electronic H            0.000 [kcal/mol]        0.000 [kJ/mol]       0.00000000 [Eh]
    Translational H         1.481 [kcal/mol]        6.197 [kJ/mol]       0.00236046 [Eh]
    Rotational H            0.592 [kcal/mol]        2.479 [kJ/mol]       0.00094418 [Eh]
    Vibrational H           4.280 [kcal/mol]       17.909 [kJ/mol]       0.00682124 [Eh]
  Correction H              6.354 [kcal/mol]       26.586 [kJ/mol]       0.01012589 [Eh]
  Total H, Enthalpy at  298.15 [K]                                    -460.78836428 [Eh]

  Gibbs free energy, G = H - T * S
    Electronic G            0.000 [kcal/mol]        0.000 [kJ/mol]       0.00000000 [Eh]
    Translational G        -9.452 [kcal/mol]      -39.548 [kJ/mol]      -0.01506298 [Eh]
    Rotational G           -1.764 [kcal/mol]       -7.382 [kJ/mol]      -0.00281163 [Eh]
    Vibrational G           4.280 [kcal/mol]       17.909 [kJ/mol]       0.00682124 [Eh]
  Correction G             -6.936 [kcal/mol]      -29.021 [kJ/mol]      -0.01105337 [Eh]
  Total G, Free enthalpy at  298.15 [K]                               -460.80954354 [Eh]

*** Psi4 exiting successfully. Buy a developer a beer!
