                               Psi4 1.3.2 release

  ==> Input File <==

--------------------------------------------------------------------------
memory 144 GB

molecule {
0 1
H 0.0000000000 0.0000000000 0.0000000000
C 0.0000000000 0.0000000000 1.0668000000
N 0.0000000000 0.0000000000 2.2232000000
}

set dynamic_level 1
set basis cc-pV(T+d)Z

optimize("wB97M-V")
frequencies("wB97M-V")
--------------------------------------------------------------------------

    Molecular point group: c2v
  Charge       = 0
  Multiplicity = 1
  Basis Set: CC-PV(T+D)Z
    Blend: CC-PV(T+D)Z
  Basis Set: (CC-PV(T+D)Z AUX)
    Blend: CC-PVTZ-JKFIT
  @DF-RKS Final Energy:   -93.42853947855150
    Total Energy =                        -93.4285394785514995
    Molecular point group: c2v
  Basis Set: CC-PV(T+D)Z
    Blend: CC-PV(T+D)Z
  Basis Set: (CC-PV(T+D)Z AUX)
    Blend: CC-PVTZ-JKFIT
  @DF-RKS Final Energy:   -93.42852717948168
    Total Energy =                        -93.4285271794816765
  Basis Set: CC-PV(T+D)Z
    Blend: CC-PV(T+D)Z
  Basis Set: (CC-PV(T+D)Z AUX)
    Blend: CC-PVTZ-JKFIT
  @DF-RKS Final Energy:   -93.42854145584451
    Total Energy =                        -93.4285414558445098
  Basis Set: CC-PV(T+D)Z
    Blend: CC-PV(T+D)Z
  Basis Set: (CC-PV(T+D)Z AUX)
    Blend: CC-PVTZ-JKFIT
  @DF-RKS Final Energy:   -93.42848211653700
    Total Energy =                        -93.4284821165369976
  @DF-RKS Final Energy:   -93.42859155303766
    Total Energy =                        -93.4285915530376769
  @DF-RKS Final Energy:   -93.42886554022655
    Total Energy =                        -93.4288655402265817
  @DF-RKS Final Energy:   -93.42885919127049
    Total Energy =                        -93.4288591912704902
  @DF-RKS Final Energy:   -93.42886145610903
    Total Energy =                        -93.4288614561090469
  @DF-RKS Final Energy:   -93.42886194830308
    Total Energy =                        -93.4288619483030658
  @DF-RKS Final Energy:   -93.42886347278528
    Total Energy =                        -93.4288634727852809
  @DF-RKS Final Energy:   -93.42886570635395
    Total Energy =                        -93.4288657063539461
  @DF-RKS Final Energy:   -93.42886056239030
    Total Energy =                        -93.4288605623903123
  @DF-RKS Final Energy:   -93.42886039879303
    Total Energy =                        -93.4288603987930344
  @DF-RKS Final Energy:   -93.42886288942626
    Total Energy =                        -93.4288628894262558
  @DF-RKS Final Energy:   -93.42886285657528
    Total Energy =                        -93.4288628565752788
  **** Optimization is complete! (in 3 steps) ****
    Final optimized geometry and variables:
  @DF-RKS Final Energy:   -93.42886570635393
    Total Energy =                        -93.4288657063539318
  @DF-RKS Final Energy:   -93.42886056233196
    Total Energy =                        -93.4288605623319626
  @DF-RKS Final Energy:   -93.42886039877806
    Total Energy =                        -93.4288603987780704
  @DF-RKS Final Energy:   -93.42886288942624
    Total Energy =                        -93.4288628894262558
  @DF-RKS Final Energy:   -93.42886285657511
    Total Energy =                        -93.4288628565751225
  @DF-RKS Final Energy:   -93.42886570635396
    Total Energy =                        -93.4288657063539461
  @DF-RKS Final Energy:   -93.42886056233182
    Total Energy =                        -93.4288605623318205
  @DF-RKS Final Energy:   -93.42886039877800
    Total Energy =                        -93.4288603987779993
  @DF-RKS Final Energy:   -93.42886288942633
    Total Energy =                        -93.4288628894263269
  @DF-RKS Final Energy:   -93.42886285657519
    Total Energy =                        -93.4288628565751935
  Basis Set: CC-PV(T+D)Z
    Blend: CC-PV(T+D)Z
  Basis Set: (CC-PV(T+D)Z AUX)
    Blend: CC-PVTZ-JKFIT
  @DF-RKS Final Energy:   -93.42885988889019
    Total Energy =                        -93.4288598888901873
  Basis Set: CC-PV(T+D)Z
    Blend: CC-PV(T+D)Z
  Basis Set: (CC-PV(T+D)Z AUX)
    Blend: CC-PVTZ-JKFIT
  @DF-RKS Final Energy:   -93.42886005859764
    Total Energy =                        -93.4288600585976212
  Multiplicity = 1
  Basis Set: CC-PV(T+D)Z
    Blend: CC-PV(T+D)Z
  Basis Set: (CC-PV(T+D)Z AUX)
    Blend: CC-PVTZ-JKFIT
  @DF-RKS Final Energy:   -93.42886542848920
    Total Energy =                        -93.4288654284892033
    Molecular point group: cs

    Geometry (in Angstrom), charge = 0, multiplicity = 1:

       Center              X                  Y                   Z               Mass
    ------------   -----------------  -----------------  -----------------  -----------------
         H            0.000000000000    -0.002247556184    -1.618162686639     1.007825032230
         C            0.000000000000     0.000364318757    -0.553656470482    12.000000000000
         N            0.000000000000    -0.000150444231     0.590920429684    14.003074004430

  Charge       = 0
  Multiplicity = 1
  Basis Set: CC-PV(T+D)Z
    Blend: CC-PV(T+D)Z
  Basis Set: (CC-PV(T+D)Z AUX)
    Blend: CC-PVTZ-JKFIT

    Orbital Energies [Eh]
    ---------------------

    Doubly Occupied:

       1Ap   -14.528162     2Ap   -10.394948     3Ap    -1.051397
       4Ap    -0.718493     5Ap    -0.494963     1App   -0.469457
       6Ap    -0.469457

  @DF-RKS Final Energy:   -93.42886542845039

   => Energetics <=

    Nuclear Repulsion Energy =             24.0775163175066780
    One-Electron Energy =                -173.1464116363935943
    Two-Electron Energy =                  64.5514751581433472
    DFT Exchange-Correlation Energy =      -8.9698233410898744
    Empirical Dispersion Energy =           0.0000000000000000
    VV10 Nonlocal Energy =                  0.0583780733830648
    Total Energy =                        -93.4288654284503792

  Dipole Moment: [D]
     X:     0.0000      Y:    -0.0024      Z:    -2.9877     Total:     2.9877

  Vibration                       6                   7                   8
  Freq [cm^-1]                 766.4185            766.4721           2234.0721
  Irrep                           B1                  B2                  A1
  Reduced mass [u]              1.3445              1.3445              4.9597
  Force const [mDyne/A]         0.4653              0.4654             14.5847

  Vibration                       9
  Freq [cm^-1]                3470.6940
  Irrep                           A1
  Reduced mass [u]              1.1986
  Force const [mDyne/A]         8.5068

  ==> Thermochemistry Components <==

  Entropy, S
    Electronic S            0.000 [cal/(mol K)]        0.000 [J/(mol K)]       0.00000000 [mEh/K] (multiplicity = 1)
    Translational S        35.816 [cal/(mol K)]      149.856 [J/(mol K)]       0.05707695 [mEh/K] (mol. weight = 27.0109 [u], P = 101325.00 [Pa])
    Rotational S           11.775 [cal/(mol K)]       49.268 [J/(mol K)]       0.01876507 [mEh/K] (symmetry no. = 1)
    Vibrational S           0.473 [cal/(mol K)]        1.980 [J/(mol K)]       0.00075424 [mEh/K]
  Total S                  48.065 [cal/(mol K)]      201.103 [J/(mol K)]       0.07659627 [mEh/K]
  Correction S              0.000 [cal/(mol K)]        0.000 [J/(mol K)]       0.00000000 [mEh/K]

  Constant volume heat capacity, Cv
    Electronic Cv           0.000 [cal/(mol K)]        0.000 [J/(mol K)]       0.00000000 [mEh/K]
    Translational Cv        2.981 [cal/(mol K)]       12.472 [J/(mol K)]       0.00475022 [mEh/K]
    Rotational Cv           1.987 [cal/(mol K)]        8.314 [J/(mol K)]       0.00316681 [mEh/K]
    Vibrational Cv          1.420 [cal/(mol K)]        5.942 [J/(mol K)]       0.00226306 [mEh/K]
  Total Cv                  6.388 [cal/(mol K)]       26.728 [J/(mol K)]       0.01018009 [mEh/K]
  Correction Cv             0.000 [cal/(mol K)]        0.000 [J/(mol K)]       0.00000000 [mEh/K]

  Constant pressure heat capacity, Cp
    Electronic Cp           0.000 [cal/(mol K)]        0.000 [J/(mol K)]       0.00000000 [mEh/K]
    Translational Cp        4.968 [cal/(mol K)]       20.786 [J/(mol K)]       0.00791703 [mEh/K]
    Rotational Cp           1.987 [cal/(mol K)]        8.314 [J/(mol K)]       0.00316681 [mEh/K]
    Vibrational Cp          1.420 [cal/(mol K)]        5.942 [J/(mol K)]       0.00226306 [mEh/K]
  Total Cp                  8.375 [cal/(mol K)]       35.042 [J/(mol K)]       0.01334690 [mEh/K]
  Correction Cp             0.000 [cal/(mol K)]        0.000 [J/(mol K)]       0.00000000 [mEh/K]

  ==> Thermochemistry Energy Analysis <==

  Raw electronic energy, E0
  Total E0, Electronic energy at well bottom at 0 [K]                  -93.42886571 [Eh]

  Zero-point energy, ZPE_vib = Sum_i nu_i / 2
    Electronic ZPE          0.000 [kcal/mol]        0.000 [kJ/mol]       0.00000000 [Eh]
    Translational ZPE       0.000 [kcal/mol]        0.000 [kJ/mol]       0.00000000 [Eh]
    Rotational ZPE          0.000 [kcal/mol]        0.000 [kJ/mol]       0.00000000 [Eh]
    Vibrational ZPE        10.347 [kcal/mol]       43.291 [kJ/mol]       0.01648860 [Eh]        3618.828 [cm^-1]
  Correction ZPE           10.347 [kcal/mol]       43.291 [kJ/mol]       0.01648860 [Eh]        3618.828 [cm^-1]
  Total ZPE, Electronic energy at 0 [K]                                -93.41237711 [Eh]

  Thermal Energy, E (includes ZPE)
    Electronic E            0.000 [kcal/mol]        0.000 [kJ/mol]       0.00000000 [Eh]
    Translational E         0.889 [kcal/mol]        3.718 [kJ/mol]       0.00141628 [Eh]
    Rotational E            0.592 [kcal/mol]        2.479 [kJ/mol]       0.00094418 [Eh]
    Vibrational E          10.458 [kcal/mol]       43.757 [kJ/mol]       0.01666611 [Eh]
  Correction E             11.939 [kcal/mol]       49.954 [kJ/mol]       0.01902657 [Eh]
  Total E, Electronic energy at  298.15 [K]                            -93.40983913 [Eh]

  Enthalpy, H_trans = E_trans + k_B * T
    Electronic H            0.000 [kcal/mol]        0.000 [kJ/mol]       0.00000000 [Eh]
    Translational H         1.481 [kcal/mol]        6.197 [kJ/mol]       0.00236046 [Eh]
    Rotational H            0.592 [kcal/mol]        2.479 [kJ/mol]       0.00094418 [Eh]
    Vibrational H          10.458 [kcal/mol]       43.757 [kJ/mol]       0.01666611 [Eh]
  Correction H             12.532 [kcal/mol]       52.433 [kJ/mol]       0.01997076 [Eh]
  Total H, Enthalpy at  298.15 [K]                                     -93.40889495 [Eh]

  Gibbs free energy, G = H - T * S
    Electronic G            0.000 [kcal/mol]        0.000 [kJ/mol]       0.00000000 [Eh]
    Translational G        -9.197 [kcal/mol]      -38.482 [kJ/mol]      -0.01465703 [Eh]
    Rotational G           -2.918 [kcal/mol]      -12.210 [kJ/mol]      -0.00465062 [Eh]
    Vibrational G          10.317 [kcal/mol]       43.166 [kJ/mol]       0.01644124 [Eh]
  Correction G             -1.799 [kcal/mol]       -7.526 [kJ/mol]      -0.00286642 [Eh]
  Total G, Free enthalpy at  298.15 [K]                                -93.43173212 [Eh]

*** Psi4 exiting successfully. Buy a developer a beer!
