                               Psi4 1.3.2 release

  ==> Input File <==

--------------------------------------------------------------------------
memory 144 GB

molecule {
0 1
F 0.0000000000 0.0000000000 0.0000000000
H 0.0000000000 0.0000000000 0.9157690000
}

set dynamic_level 1
set basis cc-pV(T+d)Z

optimize("wB97M-V")
frequencies("wB97M-V")
--------------------------------------------------------------------------

    Molecular point group: c2v
  Charge       = 0
  Multiplicity = 1
  Basis Set: CC-PV(T+D)Z
    Blend: CC-PV(T+D)Z
  Basis Set: (CC-PV(T+D)Z AUX)
    Blend: CC-PVTZ-JKFIT
  @DF-RKS Final Energy:  -100.45097559470348
    Total Energy =                       -100.4509755947034790
    Molecular point group: c2v
  Basis Set: CC-PV(T+D)Z
    Blend: CC-PV(T+D)Z
  Basis Set: (CC-PV(T+D)Z AUX)
    Blend: CC-PVTZ-JKFIT
  @DF-RKS Final Energy:  -100.45099816783430
    Total Energy =                       -100.4509981678342996
  Basis Set: CC-PV(T+D)Z
    Blend: CC-PV(T+D)Z
  Basis Set: (CC-PV(T+D)Z AUX)
    Blend: CC-PVTZ-JKFIT
  @DF-RKS Final Energy:  -100.45093637889434
    Total Energy =                       -100.4509363788943546
  Basis Set: CC-PV(T+D)Z
    Blend: CC-PV(T+D)Z
  Basis Set: (CC-PV(T+D)Z AUX)
    Blend: CC-PVTZ-JKFIT
  @DF-RKS Final Energy:  -100.45100443973693
    Total Energy =                       -100.4510044397369342
  @DF-RKS Final Energy:  -100.45099807270050
    Total Energy =                       -100.4509980727005143
  @DF-RKS Final Energy:  -100.45099473398854
    Total Energy =                       -100.4509947339885372
  @DF-RKS Final Energy:  -100.45100452112834
    Total Energy =                       -100.4510045211283398
  @DF-RKS Final Energy:  -100.45099653126699
    Total Energy =                       -100.4509965312670090
  @DF-RKS Final Energy:  -100.45099647015398
    Total Energy =                       -100.4509964701539957
  **** Optimization is complete! (in 3 steps) ****
    Final optimized geometry and variables:
  @DF-RKS Final Energy:  -100.45100452112837
    Total Energy =                       -100.4510045211283682
  @DF-RKS Final Energy:  -100.45099653126701
    Total Energy =                       -100.4509965312670090
  Basis Set: CC-PV(T+D)Z
    Blend: CC-PV(T+D)Z
  Basis Set: (CC-PV(T+D)Z AUX)
    Blend: CC-PVTZ-JKFIT
  @DF-RKS Final Energy:  -100.45099647015404
    Total Energy =                       -100.4509964701540383
  Basis Set: CC-PV(T+D)Z
    Blend: CC-PV(T+D)Z
  Basis Set: (CC-PV(T+D)Z AUX)
    Blend: CC-PVTZ-JKFIT
  @DF-RKS Final Energy:  -100.45100452112824
    Total Energy =                       -100.4510045211282545
  Multiplicity = 1
  Basis Set: CC-PV(T+D)Z
    Blend: CC-PV(T+D)Z
  Basis Set: (CC-PV(T+D)Z AUX)
    Blend: CC-PVTZ-JKFIT
  @DF-RKS Final Energy:  -100.45099653126691
    Total Energy =                       -100.4509965312669095
    Molecular point group: c2v

    Geometry (in Angstrom), charge = 0, multiplicity = 1:

       Center              X                  Y                   Z               Mass
    ------------   -----------------  -----------------  -----------------  -----------------
         F            0.000000000000     0.000000000000    -0.046253475744    18.998403162730
         H            0.000000000000     0.000000000000     0.871919382594     1.007825032230

  Charge       = 0
  Multiplicity = 1
  Basis Set: CC-PV(T+D)Z
    Blend: CC-PV(T+D)Z
  Basis Set: (CC-PV(T+D)Z AUX)
    Blend: CC-PVTZ-JKFIT

    Orbital Energies [Eh]
    ---------------------

    Doubly Occupied:

       1A1   -24.881095     2A1    -1.322436     3A1    -0.649806
       1B2    -0.514687     1B1    -0.514687

  @DF-RKS Final Energy:  -100.45099647015402

   => Energetics <=

    Nuclear Repulsion Energy =              5.1870351565932067
    One-Electron Energy =                -150.5611839691861746
    Two-Electron Energy =                  52.8013316188234398
    DFT Exchange-Correlation Energy =      -7.9215895960109144
    Empirical Dispersion Energy =           0.0000000000000000
    VV10 Nonlocal Energy =                  0.0434103196264360
    Total Energy =                       -100.4509964701540241

  Dipole Moment: [D]
     X:     0.0000      Y:     0.0000      Z:     1.8123     Total:     1.8123

  Vibration                       6
  Freq [cm^-1]                4117.6342
  Irrep                           A1
  Reduced mass [u]              1.0583
  Force const [mDyne/A]        10.5720

  ==> Thermochemistry Components <==

  Entropy, S
    Electronic S            0.000 [cal/(mol K)]        0.000 [J/(mol K)]       0.00000000 [mEh/K] (multiplicity = 1)
    Translational S        34.921 [cal/(mol K)]      146.112 [J/(mol K)]       0.05565095 [mEh/K] (mol. weight = 20.0062 [u], P = 101325.00 [Pa])
    Rotational S            6.558 [cal/(mol K)]       27.440 [J/(mol K)]       0.01045126 [mEh/K] (symmetry no. = 1)
    Vibrational S           0.000 [cal/(mol K)]        0.000 [J/(mol K)]       0.00000000 [mEh/K]
  Total S                  41.480 [cal/(mol K)]      173.551 [J/(mol K)]       0.06610221 [mEh/K]
  Correction S              0.000 [cal/(mol K)]        0.000 [J/(mol K)]       0.00000000 [mEh/K]

  Constant volume heat capacity, Cv
    Electronic Cv           0.000 [cal/(mol K)]        0.000 [J/(mol K)]       0.00000000 [mEh/K]
    Translational Cv        2.981 [cal/(mol K)]       12.472 [J/(mol K)]       0.00475022 [mEh/K]
    Rotational Cv           1.987 [cal/(mol K)]        8.314 [J/(mol K)]       0.00316681 [mEh/K]
    Vibrational Cv          0.000 [cal/(mol K)]        0.000 [J/(mol K)]       0.00000000 [mEh/K]
  Total Cv                  4.968 [cal/(mol K)]       20.786 [J/(mol K)]       0.00791703 [mEh/K]
  Correction Cv             0.000 [cal/(mol K)]        0.000 [J/(mol K)]       0.00000000 [mEh/K]

  Constant pressure heat capacity, Cp
    Electronic Cp           0.000 [cal/(mol K)]        0.000 [J/(mol K)]       0.00000000 [mEh/K]
    Translational Cp        4.968 [cal/(mol K)]       20.786 [J/(mol K)]       0.00791703 [mEh/K]
    Rotational Cp           1.987 [cal/(mol K)]        8.314 [J/(mol K)]       0.00316681 [mEh/K]
    Vibrational Cp          0.000 [cal/(mol K)]        0.000 [J/(mol K)]       0.00000000 [mEh/K]
  Total Cp                  6.955 [cal/(mol K)]       29.101 [J/(mol K)]       0.01108384 [mEh/K]
  Correction Cp             0.000 [cal/(mol K)]        0.000 [J/(mol K)]       0.00000000 [mEh/K]

  ==> Thermochemistry Energy Analysis <==

  Raw electronic energy, E0
  Total E0, Electronic energy at well bottom at 0 [K]                 -100.45100452 [Eh]

  Zero-point energy, ZPE_vib = Sum_i nu_i / 2
    Electronic ZPE          0.000 [kcal/mol]        0.000 [kJ/mol]       0.00000000 [Eh]
    Translational ZPE       0.000 [kcal/mol]        0.000 [kJ/mol]       0.00000000 [Eh]
    Rotational ZPE          0.000 [kcal/mol]        0.000 [kJ/mol]       0.00000000 [Eh]
    Vibrational ZPE         5.886 [kcal/mol]       24.629 [kJ/mol]       0.00938066 [Eh]        2058.817 [cm^-1]
  Correction ZPE            5.886 [kcal/mol]       24.629 [kJ/mol]       0.00938066 [Eh]        2058.817 [cm^-1]
  Total ZPE, Electronic energy at 0 [K]                               -100.44162386 [Eh]

  Thermal Energy, E (includes ZPE)
    Electronic E            0.000 [kcal/mol]        0.000 [kJ/mol]       0.00000000 [Eh]
    Translational E         0.889 [kcal/mol]        3.718 [kJ/mol]       0.00141628 [Eh]
    Rotational E            0.592 [kcal/mol]        2.479 [kJ/mol]       0.00094418 [Eh]
    Vibrational E           5.886 [kcal/mol]       24.629 [kJ/mol]       0.00938066 [Eh]
  Correction E              7.368 [kcal/mol]       30.826 [kJ/mol]       0.01174112 [Eh]
  Total E, Electronic energy at  298.15 [K]                           -100.43926340 [Eh]

  Enthalpy, H_trans = E_trans + k_B * T
    Electronic H            0.000 [kcal/mol]        0.000 [kJ/mol]       0.00000000 [Eh]
    Translational H         1.481 [kcal/mol]        6.197 [kJ/mol]       0.00236046 [Eh]
    Rotational H            0.592 [kcal/mol]        2.479 [kJ/mol]       0.00094418 [Eh]
    Vibrational H           5.886 [kcal/mol]       24.629 [kJ/mol]       0.00938066 [Eh]
  Correction H              7.960 [kcal/mol]       33.305 [kJ/mol]       0.01268531 [Eh]
  Total H, Enthalpy at  298.15 [K]                                    -100.43831921 [Eh]

  Gibbs free energy, G = H - T * S
    Electronic G            0.000 [kcal/mol]        0.000 [kJ/mol]       0.00000000 [Eh]
    Translational G        -8.931 [kcal/mol]      -37.366 [kJ/mol]      -0.01423187 [Eh]
    Rotational G           -1.363 [kcal/mol]       -5.702 [kJ/mol]      -0.00217186 [Eh]
    Vibrational G           5.886 [kcal/mol]       24.629 [kJ/mol]       0.00938066 [Eh]
  Correction G             -4.407 [kcal/mol]      -18.439 [kJ/mol]      -0.00702307 [Eh]
  Total G, Free enthalpy at  298.15 [K]                               -100.45802759 [Eh]

*** Psi4 exiting successfully. Buy a developer a beer!
