                               Psi4 1.3.2 release

  ==> Input File <==

--------------------------------------------------------------------------
memory 144 GB

molecule {
0 1
N 0.0000000000 0.0000000000 0.0000000000
H 0.0000000000 0.0000000000 1.0535284100
O 1.1513717966 0.0000000000 -0.3743228181
}

set dynamic_level 1
set basis cc-pV(T+d)Z

optimize("wB97M-V")
frequencies("wB97M-V")
--------------------------------------------------------------------------

    Molecular point group: cs
  Charge       = 0
  Multiplicity = 1
  Basis Set: CC-PV(T+D)Z
    Blend: CC-PV(T+D)Z
  Basis Set: (CC-PV(T+D)Z AUX)
    Blend: CC-PVTZ-JKFIT
  @DF-RKS Final Energy:  -130.48544752064586
    Total Energy =                       -130.4854475206458631
    Molecular point group: cs
  Basis Set: CC-PV(T+D)Z
    Blend: CC-PV(T+D)Z
  Basis Set: (CC-PV(T+D)Z AUX)
    Blend: CC-PVTZ-JKFIT
  @DF-RKS Final Energy:  -130.48548511166535
    Total Energy =                       -130.4854851116653549
  Basis Set: CC-PV(T+D)Z
    Blend: CC-PV(T+D)Z
  Basis Set: (CC-PV(T+D)Z AUX)
    Blend: CC-PVTZ-JKFIT
  @DF-RKS Final Energy:  -130.48540744600004
    Total Energy =                       -130.4854074460000390
  Basis Set: CC-PV(T+D)Z
    Blend: CC-PV(T+D)Z
  Basis Set: (CC-PV(T+D)Z AUX)
    Blend: CC-PVTZ-JKFIT
  @DF-RKS Final Energy:  -130.48545927216443
    Total Energy =                       -130.4854592721644622
  @DF-RKS Final Energy:  -130.48543046662977
    Total Energy =                       -130.4854304666297651
  @DF-RKS Final Energy:  -130.48545029539295
    Total Energy =                       -130.4854502953929796
  @DF-RKS Final Energy:  -130.48543926345627
    Total Energy =                       -130.4854392634562714
  @DF-RKS Final Energy:  -130.48574538272754
    Total Energy =                       -130.4857453827275435
  @DF-RKS Final Energy:  -130.48575416355055
    Total Energy =                       -130.4857541635505811
  @DF-RKS Final Energy:  -130.48573391736380
    Total Energy =                       -130.4857339173637740
  @DF-RKS Final Energy:  -130.48574279063814
    Total Energy =                       -130.4857427906381417
  @DF-RKS Final Energy:  -130.48574271331265
    Total Energy =                       -130.4857427133126180
  @DF-RKS Final Energy:  -130.48573210152975
    Total Energy =                       -130.4857321015297487
  @DF-RKS Final Energy:  -130.48575316021771
    Total Energy =                       -130.4857531602177119
  @DF-RKS Final Energy:  -130.48576435214483
    Total Energy =                       -130.4857643521448267
  @DF-RKS Final Energy:  -130.48575678974487
    Total Energy =                       -130.4857567897448689
  @DF-RKS Final Energy:  -130.48576914798392
    Total Energy =                       -130.4857691479839445
  @DF-RKS Final Energy:  -130.48576964025835
    Total Energy =                       -130.4857696402583542
  @DF-RKS Final Energy:  -130.48575394453599
    Total Energy =                       -130.4857539445359862
  @DF-RKS Final Energy:  -130.48576327927609
    Total Energy =                       -130.4857632792761137
  **** Optimization is complete! (in 4 steps) ****
    Final optimized geometry and variables:
  @DF-RKS Final Energy:  -130.48578254846947
    Total Energy =                       -130.4857825484694729
  @DF-RKS Final Energy:  -130.48578137515742
    Total Energy =                       -130.4857813751574156
  @DF-RKS Final Energy:  -130.48578098290400
    Total Energy =                       -130.4857809829040320
  @DF-RKS Final Energy:  -130.48578042336067
    Total Energy =                       -130.4857804233606657
  @DF-RKS Final Energy:  -130.48577953968993
    Total Energy =                       -130.4857795396899292
  @DF-RKS Final Energy:  -130.48577919468153
    Total Energy =                       -130.4857791946815269
  @DF-RKS Final Energy:  -130.48578047699317
    Total Energy =                       -130.4857804769931704
  @DF-RKS Final Energy:  -130.48578254846984
    Total Energy =                       -130.4857825484698708
  @DF-RKS Final Energy:  -130.48578137515739
    Total Energy =                       -130.4857813751573872
  @DF-RKS Final Energy:  -130.48578098290417
    Total Energy =                       -130.4857809829041742
  @DF-RKS Final Energy:  -130.48578042336069
    Total Energy =                       -130.4857804233606942
  @DF-RKS Final Energy:  -130.48577953969033
    Total Energy =                       -130.4857795396903271
  @DF-RKS Final Energy:  -130.48577919468187
    Total Energy =                       -130.4857791946818679
  @DF-RKS Final Energy:  -130.48578047699334
    Total Energy =                       -130.4857804769933693
  @DF-RKS Final Energy:  -130.48577818339746
    Total Energy =                       -130.4857781833974855
  @DF-RKS Final Energy:  -130.48577946237415
    Total Energy =                       -130.4857794623741540
  Basis Set: CC-PV(T+D)Z
    Blend: CC-PV(T+D)Z
  Basis Set: (CC-PV(T+D)Z AUX)
    Blend: CC-PVTZ-JKFIT
  @DF-RKS Final Energy:  -130.48577844489282
    Total Energy =                       -130.4857784448928442
  Basis Set: CC-PV(T+D)Z
    Blend: CC-PV(T+D)Z
  Basis Set: (CC-PV(T+D)Z AUX)
    Blend: CC-PVTZ-JKFIT
  @DF-RKS Final Energy:  -130.48577754862296
    Total Energy =                       -130.4857775486229627
  Multiplicity = 1
  Basis Set: CC-PV(T+D)Z
    Blend: CC-PV(T+D)Z
  Basis Set: (CC-PV(T+D)Z AUX)
    Blend: CC-PVTZ-JKFIT
  @DF-RKS Final Energy:  -130.48578029555861
    Total Energy =                       -130.4857802955585839
    Molecular point group: cs

    Geometry (in Angstrom), charge = 0, multiplicity = 1:

       Center              X                  Y                   Z               Mass
    ------------   -----------------  -----------------  -----------------  -----------------
         N            0.586547290242     0.155295281064     0.000000000000    14.003074004430
         H            0.589443382802     1.212566870444     0.000000000000     1.007825032230
         O           -0.550645071768    -0.212359155354     0.000000000000    15.994914619570

  Charge       = 0
  Multiplicity = 1
  Basis Set: CC-PV(T+D)Z
    Blend: CC-PV(T+D)Z
  Basis Set: (CC-PV(T+D)Z AUX)
    Blend: CC-PVTZ-JKFIT

    Orbital Energies [Eh]
    ---------------------

    Doubly Occupied:

       1Ap   -19.413590     2Ap   -14.629234     3Ap    -1.310838
       4Ap    -0.844601     5Ap    -0.645902     1App   -0.570773
       6Ap    -0.565718     7Ap    -0.347194

  @DF-RKS Final Energy:  -130.48577989598286

   => Energetics <=

    Nuclear Repulsion Energy =             30.6186082105283965
    One-Electron Energy =                -238.4280352549687052
    Two-Electron Energy =                  88.6326357064121737
    DFT Exchange-Correlation Energy =     -11.3759522703655271
    Empirical Dispersion Energy =           0.0000000000000000
    VV10 Nonlocal Energy =                  0.0669637124107829
    Total Energy =                       -130.4857798959828585

  Dipole Moment: [D]
     X:     0.4420      Y:     1.6325      Z:     0.0000     Total:     1.6913

  Vibration                       7                   8                   9
  Freq [cm^-1]                1580.1431           1714.7908           2935.7198
  Irrep                           Ap                  Ap                  Ap
  Reduced mass [u]              1.2065             10.0969              1.0765
  Force const [mDyne/A]         1.7749             17.4929              5.4664

  ==> Thermochemistry Components <==

  Entropy, S
    Electronic S            0.000 [cal/(mol K)]        0.000 [J/(mol K)]       0.00000000 [mEh/K] (multiplicity = 1)
    Translational S        36.227 [cal/(mol K)]      151.576 [J/(mol K)]       0.05773217 [mEh/K] (mol. weight = 31.0058 [u], P = 101325.00 [Pa])
    Rotational S           16.448 [cal/(mol K)]       68.817 [J/(mol K)]       0.02621094 [mEh/K] (symmetry no. = 1)
    Vibrational S           0.013 [cal/(mol K)]        0.055 [J/(mol K)]       0.00002085 [mEh/K]
  Total S                  52.688 [cal/(mol K)]      220.447 [J/(mol K)]       0.08396396 [mEh/K]
  Correction S              0.000 [cal/(mol K)]        0.000 [J/(mol K)]       0.00000000 [mEh/K]

  Constant volume heat capacity, Cv
    Electronic Cv           0.000 [cal/(mol K)]        0.000 [J/(mol K)]       0.00000000 [mEh/K]
    Translational Cv        2.981 [cal/(mol K)]       12.472 [J/(mol K)]       0.00475022 [mEh/K]
    Rotational Cv           2.981 [cal/(mol K)]       12.472 [J/(mol K)]       0.00475022 [mEh/K]
    Vibrational Cv          0.091 [cal/(mol K)]        0.382 [J/(mol K)]       0.00014567 [mEh/K]
  Total Cv                  6.053 [cal/(mol K)]       25.326 [J/(mol K)]       0.00964610 [mEh/K]
  Correction Cv             0.000 [cal/(mol K)]        0.000 [J/(mol K)]       0.00000000 [mEh/K]

  Constant pressure heat capacity, Cp
    Electronic Cp           0.000 [cal/(mol K)]        0.000 [J/(mol K)]       0.00000000 [mEh/K]
    Translational Cp        4.968 [cal/(mol K)]       20.786 [J/(mol K)]       0.00791703 [mEh/K]
    Rotational Cp           2.981 [cal/(mol K)]       12.472 [J/(mol K)]       0.00475022 [mEh/K]
    Vibrational Cp          0.091 [cal/(mol K)]        0.382 [J/(mol K)]       0.00014567 [mEh/K]
  Total Cp                  8.040 [cal/(mol K)]       33.640 [J/(mol K)]       0.01281291 [mEh/K]
  Correction Cp             0.000 [cal/(mol K)]        0.000 [J/(mol K)]       0.00000000 [mEh/K]

  ==> Thermochemistry Energy Analysis <==

  Raw electronic energy, E0
  Total E0, Electronic energy at well bottom at 0 [K]                 -130.48578255 [Eh]

  Zero-point energy, ZPE_vib = Sum_i nu_i / 2
    Electronic ZPE          0.000 [kcal/mol]        0.000 [kJ/mol]       0.00000000 [Eh]
    Translational ZPE       0.000 [kcal/mol]        0.000 [kJ/mol]       0.00000000 [Eh]
    Rotational ZPE          0.000 [kcal/mol]        0.000 [kJ/mol]       0.00000000 [Eh]
    Vibrational ZPE         8.907 [kcal/mol]       37.268 [kJ/mol]       0.01419447 [Eh]        3115.327 [cm^-1]
  Correction ZPE            8.907 [kcal/mol]       37.268 [kJ/mol]       0.01419447 [Eh]        3115.327 [cm^-1]
  Total ZPE, Electronic energy at 0 [K]                               -130.47158808 [Eh]

  Thermal Energy, E (includes ZPE)
    Electronic E            0.000 [kcal/mol]        0.000 [kJ/mol]       0.00000000 [Eh]
    Translational E         0.889 [kcal/mol]        3.718 [kJ/mol]       0.00141628 [Eh]
    Rotational E            0.889 [kcal/mol]        3.718 [kJ/mol]       0.00141628 [Eh]
    Vibrational E           8.911 [kcal/mol]       37.282 [kJ/mol]       0.01419999 [Eh]
  Correction E             10.688 [kcal/mol]       44.719 [kJ/mol]       0.01703254 [Eh]
  Total E, Electronic energy at  298.15 [K]                           -130.46875001 [Eh]

  Enthalpy, H_trans = E_trans + k_B * T
    Electronic H            0.000 [kcal/mol]        0.000 [kJ/mol]       0.00000000 [Eh]
    Translational H         1.481 [kcal/mol]        6.197 [kJ/mol]       0.00236046 [Eh]
    Rotational H            0.889 [kcal/mol]        3.718 [kJ/mol]       0.00141628 [Eh]
    Vibrational H           8.911 [kcal/mol]       37.282 [kJ/mol]       0.01419999 [Eh]
  Correction H             11.281 [kcal/mol]       47.198 [kJ/mol]       0.01797673 [Eh]
  Total H, Enthalpy at  298.15 [K]                                    -130.46780582 [Eh]

  Gibbs free energy, G = H - T * S
    Electronic G            0.000 [kcal/mol]        0.000 [kJ/mol]       0.00000000 [Eh]
    Translational G        -9.320 [kcal/mol]      -38.995 [kJ/mol]      -0.01485238 [Eh]
    Rotational G           -4.015 [kcal/mol]      -16.799 [kJ/mol]      -0.00639851 [Eh]
    Vibrational G           8.907 [kcal/mol]       37.266 [kJ/mol]       0.01419377 [Eh]
  Correction G             -4.428 [kcal/mol]      -18.528 [kJ/mol]      -0.00705713 [Eh]
  Total G, Free enthalpy at  298.15 [K]                               -130.49283968 [Eh]

*** Psi4 exiting successfully. Buy a developer a beer!
