                               Psi4 1.3.2 release

  ==> Input File <==

--------------------------------------------------------------------------
memory 144 GB

molecule {
0 1
O 0.0000000000 0.0000000000 0.0000000000
H 0.0000000000 0.0000000000 0.9638997500
Cl 1.6530447720 0.0000000000 -0.3711121967
}

set dynamic_level 1
set basis cc-pV(T+d)Z

optimize("wB97M-V")
frequencies("wB97M-V")
--------------------------------------------------------------------------

    Molecular point group: cs
  Charge       = 0
  Multiplicity = 1
  Basis Set: CC-PV(T+D)Z
    Blend: CC-PV(T+D)Z
  Basis Set: (CC-PV(T+D)Z AUX)
    Blend: CC-PVTZ-JKFIT
  @DF-RKS Final Energy:  -535.96472035727061
    Total Energy =                       -535.9647203572706076
    Molecular point group: cs
  Basis Set: CC-PV(T+D)Z
    Blend: CC-PV(T+D)Z
  Basis Set: (CC-PV(T+D)Z AUX)
    Blend: CC-PVTZ-JKFIT
  @DF-RKS Final Energy:  -535.96472842686876
    Total Energy =                       -535.9647284268688736
  Basis Set: CC-PV(T+D)Z
    Blend: CC-PV(T+D)Z
  Basis Set: (CC-PV(T+D)Z AUX)
    Blend: CC-PVTZ-JKFIT
  @DF-RKS Final Energy:  -535.96471169161407
    Total Energy =                       -535.9647116916140703
  Basis Set: CC-PV(T+D)Z
    Blend: CC-PV(T+D)Z
  Basis Set: (CC-PV(T+D)Z AUX)
    Blend: CC-PVTZ-JKFIT
  @DF-RKS Final Energy:  -535.96471925406956
    Total Energy =                       -535.9647192540695642
  @DF-RKS Final Energy:  -535.96471206567435
    Total Energy =                       -535.9647120656742345
  @DF-RKS Final Energy:  -535.96471302845362
    Total Energy =                       -535.9647130284536161
  @DF-RKS Final Energy:  -535.96472174447899
    Total Energy =                       -535.9647217444789931
  @DF-RKS Final Energy:  -535.96477165427700
    Total Energy =                       -535.9647716542768876
  @DF-RKS Final Energy:  -535.96477439234445
    Total Energy =                       -535.9647743923445660
  @DF-RKS Final Energy:  -535.96476829939013
    Total Energy =                       -535.9647682993900162
  @DF-RKS Final Energy:  -535.96476595316460
    Total Energy =                       -535.9647659531644877
  @DF-RKS Final Energy:  -535.96476808091495
    Total Energy =                       -535.9647680809147232
  @DF-RKS Final Energy:  -535.96476779329157
    Total Energy =                       -535.9647677932915713
  @DF-RKS Final Energy:  -535.96476953836429
    Total Energy =                       -535.9647695383642940
  @DF-RKS Final Energy:  -535.96477918462722
    Total Energy =                       -535.9647791846273321
  @DF-RKS Final Energy:  -535.96477876778931
    Total Energy =                       -535.9647787677893120
  @DF-RKS Final Energy:  -535.96477897400860
    Total Energy =                       -535.9647789740085955
  @DF-RKS Final Energy:  -535.96477450865632
    Total Energy =                       -535.9647745086563191
  @DF-RKS Final Energy:  -535.96477463352755
    Total Energy =                       -535.9647746335275542
  @DF-RKS Final Energy:  -535.96477665648399
    Total Energy =                       -535.9647766564839912
  **** Optimization is complete! (in 3 steps) ****
    Final optimized geometry and variables:
  @DF-RKS Final Energy:  -535.96477918462801
    Total Energy =                       -535.9647791846280143
  @DF-RKS Final Energy:  -535.96477876773281
    Total Energy =                       -535.9647787677329234
  @DF-RKS Final Energy:  -535.96477897400916
    Total Energy =                       -535.9647789740092776
  @DF-RKS Final Energy:  -535.96477450867178
    Total Energy =                       -535.9647745086717805
  @DF-RKS Final Energy:  -535.96477463365716
    Total Energy =                       -535.9647746336571572
  @DF-RKS Final Energy:  -535.96477665648433
    Total Energy =                       -535.9647766564843323
  @DF-RKS Final Energy:  -535.96477568541968
    Total Energy =                       -535.9647756854196814
  @DF-RKS Final Energy:  -535.96477918462767
    Total Energy =                       -535.9647791846277869
  @DF-RKS Final Energy:  -535.96477876773338
    Total Energy =                       -535.9647787677333781
  @DF-RKS Final Energy:  -535.96477897400950
    Total Energy =                       -535.9647789740096187
  @DF-RKS Final Energy:  -535.96477450867144
    Total Energy =                       -535.9647745086714394
  @DF-RKS Final Energy:  -535.96477463365670
    Total Energy =                       -535.9647746336567025
  @DF-RKS Final Energy:  -535.96477665648501
    Total Energy =                       -535.9647766564850144
  @DF-RKS Final Energy:  -535.96477568541968
    Total Energy =                       -535.9647756854196814
  @DF-RKS Final Energy:  -535.96477443175343
    Total Energy =                       -535.9647744317534261
  @DF-RKS Final Energy:  -535.96477410775810
    Total Energy =                       -535.9647741077582168
  Basis Set: CC-PV(T+D)Z
    Blend: CC-PV(T+D)Z
  Basis Set: (CC-PV(T+D)Z AUX)
    Blend: CC-PVTZ-JKFIT
  @DF-RKS Final Energy:  -535.96477570128309
    Total Energy =                       -535.9647757012830880
  Basis Set: CC-PV(T+D)Z
    Blend: CC-PV(T+D)Z
  Basis Set: (CC-PV(T+D)Z AUX)
    Blend: CC-PVTZ-JKFIT
  @DF-RKS Final Energy:  -535.96477645916241
    Total Energy =                       -535.9647764591625219
  Multiplicity = 1
  Basis Set: CC-PV(T+D)Z
    Blend: CC-PV(T+D)Z
  Basis Set: (CC-PV(T+D)Z AUX)
    Blend: CC-PVTZ-JKFIT
  @DF-RKS Final Energy:  -535.96477704287622
    Total Energy =                       -535.9647770428762215
    Molecular point group: cs

    Geometry (in Angstrom), charge = 0, multiplicity = 1:

       Center              X                  Y                   Z               Mass
    ------------   -----------------  -----------------  -----------------  -----------------
         O            1.104343285626     0.230970512655     0.000000000000    15.994914619570
         H            1.110313000802     1.196270421098     0.000000000000     1.007825032230
         CL          -0.537131657447    -0.140124268583     0.000000000000    34.968852682000

  Charge       = 0
  Multiplicity = 1
  Basis Set: CC-PV(T+D)Z
    Blend: CC-PV(T+D)Z
  Basis Set: (CC-PV(T+D)Z AUX)
    Blend: CC-PVTZ-JKFIT

    Orbital Energies [Eh]
    ---------------------

    Doubly Occupied:

       1Ap  -101.933090     2Ap   -19.401339     3Ap    -9.686700
       4Ap    -7.395267     5Ap    -7.381864     1App   -7.381540
       6Ap    -1.200891     7Ap    -0.919187     8Ap    -0.639869
       9Ap    -0.548381     2App   -0.522751    10Ap    -0.417196
       3App   -0.383825

  @DF-RKS Final Energy:  -535.96477785275613

   => Energetics <=

    Nuclear Repulsion Energy =             51.3906078120254364
    One-Electron Energy =                -841.4072225984826900
    Two-Electron Energy =                 282.2206514271013020
    DFT Exchange-Correlation Energy =     -28.2775197971834800
    Empirical Dispersion Energy =           0.0000000000000000
    VV10 Nonlocal Energy =                  0.1087053037833330
    Total Energy =                       -535.9647778527560149

  Dipole Moment: [D]
     X:    -0.0580      Y:     1.5788      Z:     0.0000     Total:     1.5798

  Vibration                       7                   8                   9
  Freq [cm^-1]                 789.5522           1284.0733           3809.7988
  Irrep                           Ap                  Ap                  Ap
  Reduced mass [u]             17.5424              1.0729              1.0678
  Force const [mDyne/A]         6.4432              1.0422              9.1318

  ==> Thermochemistry Components <==

  Entropy, S
    Electronic S            0.000 [cal/(mol K)]        0.000 [J/(mol K)]       0.00000000 [mEh/K] (multiplicity = 1)
    Translational S        37.767 [cal/(mol K)]      158.018 [J/(mol K)]       0.06018576 [mEh/K] (mol. weight = 51.9716 [u], P = 101325.00 [Pa])
    Rotational S           18.374 [cal/(mol K)]       76.876 [J/(mol K)]       0.02928052 [mEh/K] (symmetry no. = 1)
    Vibrational S           0.245 [cal/(mol K)]        1.026 [J/(mol K)]       0.00039067 [mEh/K]
  Total S                  56.386 [cal/(mol K)]      235.919 [J/(mol K)]       0.08985695 [mEh/K]
  Correction S              0.000 [cal/(mol K)]        0.000 [J/(mol K)]       0.00000000 [mEh/K]

  Constant volume heat capacity, Cv
    Electronic Cv           0.000 [cal/(mol K)]        0.000 [J/(mol K)]       0.00000000 [mEh/K]
    Translational Cv        2.981 [cal/(mol K)]       12.472 [J/(mol K)]       0.00475022 [mEh/K]
    Rotational Cv           2.981 [cal/(mol K)]       12.472 [J/(mol K)]       0.00475022 [mEh/K]
    Vibrational Cv          0.824 [cal/(mol K)]        3.448 [J/(mol K)]       0.00131337 [mEh/K]
  Total Cv                  6.786 [cal/(mol K)]       28.392 [J/(mol K)]       0.01081380 [mEh/K]
  Correction Cv             0.000 [cal/(mol K)]        0.000 [J/(mol K)]       0.00000000 [mEh/K]

  Constant pressure heat capacity, Cp
    Electronic Cp           0.000 [cal/(mol K)]        0.000 [J/(mol K)]       0.00000000 [mEh/K]
    Translational Cp        4.968 [cal/(mol K)]       20.786 [J/(mol K)]       0.00791703 [mEh/K]
    Rotational Cp           2.981 [cal/(mol K)]       12.472 [J/(mol K)]       0.00475022 [mEh/K]
    Vibrational Cp          0.824 [cal/(mol K)]        3.448 [J/(mol K)]       0.00131337 [mEh/K]
  Total Cp                  8.773 [cal/(mol K)]       36.706 [J/(mol K)]       0.01398061 [mEh/K]
  Correction Cp             0.000 [cal/(mol K)]        0.000 [J/(mol K)]       0.00000000 [mEh/K]

  ==> Thermochemistry Energy Analysis <==

  Raw electronic energy, E0
  Total E0, Electronic energy at well bottom at 0 [K]                 -535.96477918 [Eh]

  Zero-point energy, ZPE_vib = Sum_i nu_i / 2
    Electronic ZPE          0.000 [kcal/mol]        0.000 [kJ/mol]       0.00000000 [Eh]
    Translational ZPE       0.000 [kcal/mol]        0.000 [kJ/mol]       0.00000000 [Eh]
    Rotational ZPE          0.000 [kcal/mol]        0.000 [kJ/mol]       0.00000000 [Eh]
    Vibrational ZPE         8.411 [kcal/mol]       35.191 [kJ/mol]       0.01340343 [Eh]        2941.712 [cm^-1]
  Correction ZPE            8.411 [kcal/mol]       35.191 [kJ/mol]       0.01340343 [Eh]        2941.712 [cm^-1]
  Total ZPE, Electronic energy at 0 [K]                               -535.95137576 [Eh]

  Thermal Energy, E (includes ZPE)
    Electronic E            0.000 [kcal/mol]        0.000 [kJ/mol]       0.00000000 [Eh]
    Translational E         0.889 [kcal/mol]        3.718 [kJ/mol]       0.00141628 [Eh]
    Rotational E            0.889 [kcal/mol]        3.718 [kJ/mol]       0.00141628 [Eh]
    Vibrational E           8.469 [kcal/mol]       35.436 [kJ/mol]       0.01349684 [Eh]
  Correction E             10.247 [kcal/mol]       42.873 [kJ/mol]       0.01632939 [Eh]
  Total E, Electronic energy at  298.15 [K]                           -535.94844979 [Eh]

  Enthalpy, H_trans = E_trans + k_B * T
    Electronic H            0.000 [kcal/mol]        0.000 [kJ/mol]       0.00000000 [Eh]
    Translational H         1.481 [kcal/mol]        6.197 [kJ/mol]       0.00236046 [Eh]
    Rotational H            0.889 [kcal/mol]        3.718 [kJ/mol]       0.00141628 [Eh]
    Vibrational H           8.469 [kcal/mol]       35.436 [kJ/mol]       0.01349684 [Eh]
  Correction H             10.839 [kcal/mol]       45.352 [kJ/mol]       0.01727358 [Eh]
  Total H, Enthalpy at  298.15 [K]                                    -535.94750561 [Eh]

  Gibbs free energy, G = H - T * S
    Electronic G            0.000 [kcal/mol]        0.000 [kJ/mol]       0.00000000 [Eh]
    Translational G        -9.779 [kcal/mol]      -40.916 [kJ/mol]      -0.01558392 [Eh]
    Rotational G           -4.589 [kcal/mol]      -19.202 [kJ/mol]      -0.00731371 [Eh]
    Vibrational G           8.396 [kcal/mol]       35.130 [kJ/mol]       0.01338036 [Eh]
  Correction G             -5.972 [kcal/mol]      -24.988 [kJ/mol]      -0.00951728 [Eh]
  Total G, Free enthalpy at  298.15 [K]                               -535.97429646 [Eh]

*** Psi4 exiting successfully. Buy a developer a beer!
