                               Psi4 1.3.2 release

  ==> Input File <==

--------------------------------------------------------------------------
memory 144 GB

molecule {
0 1
N 0.0000000000 0.0000000000 0.0000000000
N 0.0000000000 0.0000000000 1.1003000000
}

set dynamic_level 1
set basis cc-pV(T+d)Z

optimize("wB97M-V")
frequencies("wB97M-V")
--------------------------------------------------------------------------

    Molecular point group: d2h
  Charge       = 0
  Multiplicity = 1
  Basis Set: CC-PV(T+D)Z
    Blend: CC-PV(T+D)Z
  Basis Set: (CC-PV(T+D)Z AUX)
    Blend: CC-PVTZ-JKFIT
  @DF-RKS Final Energy:  -109.54603478076788
    Total Energy =                       -109.5460347807678829
    Molecular point group: d2h
  Basis Set: CC-PV(T+D)Z
    Blend: CC-PV(T+D)Z
  Basis Set: (CC-PV(T+D)Z AUX)
    Blend: CC-PVTZ-JKFIT
  @DF-RKS Final Energy:  -109.54597465351200
    Total Energy =                       -109.5459746535120047
  Basis Set: CC-PV(T+D)Z
    Blend: CC-PV(T+D)Z
  Basis Set: (CC-PV(T+D)Z AUX)
    Blend: CC-PVTZ-JKFIT
  @DF-RKS Final Energy:  -109.54608945826683
    Total Energy =                       -109.5460894582668345
  Basis Set: CC-PV(T+D)Z
    Blend: CC-PV(T+D)Z
  Basis Set: (CC-PV(T+D)Z AUX)
    Blend: CC-PVTZ-JKFIT
  @DF-RKS Final Energy:  -109.54632669807165
    Total Energy =                       -109.5463266980716526
  @DF-RKS Final Energy:  -109.54631766958175
    Total Energy =                       -109.5463176695817680
  @DF-RKS Final Energy:  -109.54632991520950
    Total Energy =                       -109.5463299152094834
  @DF-RKS Final Energy:  -109.54632991863558
    Total Energy =                       -109.5463299186355783
  @DF-RKS Final Energy:  -109.54632721352186
    Total Energy =                       -109.5463272135218773
  @DF-RKS Final Energy:  -109.54632676718759
    Total Energy =                       -109.5463267671876082
  **** Optimization is complete! (in 3 steps) ****
    Final optimized geometry and variables:
  @DF-RKS Final Energy:  -109.54632991863554
    Total Energy =                       -109.5463299186355357
  @DF-RKS Final Energy:  -109.54632721352181
    Total Energy =                       -109.5463272135218205
  Basis Set: CC-PV(T+D)Z
    Blend: CC-PV(T+D)Z
  Basis Set: (CC-PV(T+D)Z AUX)
    Blend: CC-PVTZ-JKFIT
  @DF-RKS Final Energy:  -109.54632676718758
    Total Energy =                       -109.5463267671875798
  Basis Set: CC-PV(T+D)Z
    Blend: CC-PV(T+D)Z
  Basis Set: (CC-PV(T+D)Z AUX)
    Blend: CC-PVTZ-JKFIT
  @DF-RKS Final Energy:  -109.54632991863561
    Total Energy =                       -109.5463299186356068
  Multiplicity = 1
  Basis Set: CC-PV(T+D)Z
    Blend: CC-PV(T+D)Z
  Basis Set: (CC-PV(T+D)Z AUX)
    Blend: CC-PVTZ-JKFIT
  @DF-RKS Final Energy:  -109.54632721352178
    Total Energy =                       -109.5463272135217778
    Molecular point group: d2h

    Geometry (in Angstrom), charge = 0, multiplicity = 1:

       Center              X                  Y                   Z               Mass
    ------------   -----------------  -----------------  -----------------  -----------------
         N            0.000000000000     0.000000000000    -0.544551527592    14.003074004430
         N            0.000000000000     0.000000000000     0.544551527592    14.003074004430

  Charge       = 0
  Multiplicity = 1
  Basis Set: CC-PV(T+D)Z
    Blend: CC-PV(T+D)Z
  Basis Set: (CC-PV(T+D)Z AUX)
    Blend: CC-PVTZ-JKFIT

    Orbital Energies [Eh]
    ---------------------

    Doubly Occupied:

       1Ag   -14.602003     1B1u  -14.600195     2Ag    -1.254315
       2B1u   -0.663911     1B2u   -0.571412     1B3u   -0.571412
       3Ag    -0.539122

  @DF-RKS Final Energy:  -109.54632676718758

   => Energetics <=

    Nuclear Repulsion Energy =             23.8082917859825685
    One-Electron Energy =                -194.8894733082217954
    Two-Electron Energy =                  71.3748886622121006
    DFT Exchange-Correlation Energy =      -9.8989842691442984
    Empirical Dispersion Energy =           0.0000000000000000
    VV10 Nonlocal Energy =                  0.0589503619838458
    Total Energy =                       -109.5463267671875798

  Dipole Moment: [D]
     X:     0.0000      Y:     0.0000      Z:     0.0000     Total:     0.0000

  Vibration                       6
  Freq [cm^-1]                2488.0302
  Irrep                           Ag
  Reduced mass [u]             14.0031
  Force const [mDyne/A]        51.0722

  ==> Thermochemistry Components <==

  Entropy, S
    Electronic S            0.000 [cal/(mol K)]        0.000 [J/(mol K)]       0.00000000 [mEh/K] (multiplicity = 1)
    Translational S        35.924 [cal/(mol K)]      150.307 [J/(mol K)]       0.05724883 [mEh/K] (mol. weight = 28.0061 [u], P = 101325.00 [Pa])
    Rotational S            9.806 [cal/(mol K)]       41.028 [J/(mol K)]       0.01562671 [mEh/K] (symmetry no. = 2)
    Vibrational S           0.000 [cal/(mol K)]        0.001 [J/(mol K)]       0.00000025 [mEh/K]
  Total S                  45.730 [cal/(mol K)]      191.335 [J/(mol K)]       0.07287579 [mEh/K]
  Correction S              0.000 [cal/(mol K)]        0.000 [J/(mol K)]       0.00000000 [mEh/K]

  Constant volume heat capacity, Cv
    Electronic Cv           0.000 [cal/(mol K)]        0.000 [J/(mol K)]       0.00000000 [mEh/K]
    Translational Cv        2.981 [cal/(mol K)]       12.472 [J/(mol K)]       0.00475022 [mEh/K]
    Rotational Cv           1.987 [cal/(mol K)]        8.314 [J/(mol K)]       0.00316681 [mEh/K]
    Vibrational Cv          0.002 [cal/(mol K)]        0.007 [J/(mol K)]       0.00000279 [mEh/K]
  Total Cv                  4.970 [cal/(mol K)]       20.793 [J/(mol K)]       0.00791981 [mEh/K]
  Correction Cv             0.000 [cal/(mol K)]        0.000 [J/(mol K)]       0.00000000 [mEh/K]

  Constant pressure heat capacity, Cp
    Electronic Cp           0.000 [cal/(mol K)]        0.000 [J/(mol K)]       0.00000000 [mEh/K]
    Translational Cp        4.968 [cal/(mol K)]       20.786 [J/(mol K)]       0.00791703 [mEh/K]
    Rotational Cp           1.987 [cal/(mol K)]        8.314 [J/(mol K)]       0.00316681 [mEh/K]
    Vibrational Cp          0.002 [cal/(mol K)]        0.007 [J/(mol K)]       0.00000279 [mEh/K]
  Total Cp                  6.957 [cal/(mol K)]       29.108 [J/(mol K)]       0.01108662 [mEh/K]
  Correction Cp             0.000 [cal/(mol K)]        0.000 [J/(mol K)]       0.00000000 [mEh/K]

  ==> Thermochemistry Energy Analysis <==

  Raw electronic energy, E0
  Total E0, Electronic energy at well bottom at 0 [K]                 -109.54632992 [Eh]

  Zero-point energy, ZPE_vib = Sum_i nu_i / 2
    Electronic ZPE          0.000 [kcal/mol]        0.000 [kJ/mol]       0.00000000 [Eh]
    Translational ZPE       0.000 [kcal/mol]        0.000 [kJ/mol]       0.00000000 [Eh]
    Rotational ZPE          0.000 [kcal/mol]        0.000 [kJ/mol]       0.00000000 [Eh]
    Vibrational ZPE         3.557 [kcal/mol]       14.882 [kJ/mol]       0.00566815 [Eh]        1244.015 [cm^-1]
  Correction ZPE            3.557 [kcal/mol]       14.882 [kJ/mol]       0.00566815 [Eh]        1244.015 [cm^-1]
  Total ZPE, Electronic energy at 0 [K]                               -109.54066177 [Eh]

  Thermal Energy, E (includes ZPE)
    Electronic E            0.000 [kcal/mol]        0.000 [kJ/mol]       0.00000000 [Eh]
    Translational E         0.889 [kcal/mol]        3.718 [kJ/mol]       0.00141628 [Eh]
    Rotational E            0.592 [kcal/mol]        2.479 [kJ/mol]       0.00094418 [Eh]
    Vibrational E           3.557 [kcal/mol]       14.882 [kJ/mol]       0.00566822 [Eh]
  Correction E              5.038 [kcal/mol]       21.079 [kJ/mol]       0.00802868 [Eh]
  Total E, Electronic energy at  298.15 [K]                           -109.53830124 [Eh]

  Enthalpy, H_trans = E_trans + k_B * T
    Electronic H            0.000 [kcal/mol]        0.000 [kJ/mol]       0.00000000 [Eh]
    Translational H         1.481 [kcal/mol]        6.197 [kJ/mol]       0.00236046 [Eh]
    Rotational H            0.592 [kcal/mol]        2.479 [kJ/mol]       0.00094418 [Eh]
    Vibrational H           3.557 [kcal/mol]       14.882 [kJ/mol]       0.00566822 [Eh]
  Correction H              5.631 [kcal/mol]       23.558 [kJ/mol]       0.00897286 [Eh]
  Total H, Enthalpy at  298.15 [K]                                    -109.53735705 [Eh]

  Gibbs free energy, G = H - T * S
    Electronic G            0.000 [kcal/mol]        0.000 [kJ/mol]       0.00000000 [Eh]
    Translational G        -9.230 [kcal/mol]      -38.617 [kJ/mol]      -0.01470828 [Eh]
    Rotational G           -2.331 [kcal/mol]       -9.754 [kJ/mol]      -0.00371492 [Eh]
    Vibrational G           3.557 [kcal/mol]       14.882 [kJ/mol]       0.00566814 [Eh]
  Correction G             -8.004 [kcal/mol]      -33.488 [kJ/mol]      -0.01275505 [Eh]
  Total G, Free enthalpy at  298.15 [K]                               -109.55908497 [Eh]

*** Psi4 exiting successfully. Buy a developer a beer!
