                               Psi4 1.3.2 release

  ==> Input File <==

--------------------------------------------------------------------------
memory 144 GB

molecule {
0 1
N 0.0000000000 0.0000000000 0.0000000000
H 0.0000000000 0.0000000000 1.0124000000
H 0.9722998620 0.0000000000 -0.2821112163
H -0.3756003142 0.8968229622 -0.2821112163
}

set dynamic_level 1
set basis cc-pV(T+d)Z

optimize("wB97M-V")
frequencies("wB97M-V")
--------------------------------------------------------------------------

    Molecular point group: cs
  Charge       = 0
  Multiplicity = 1
  Basis Set: CC-PV(T+D)Z
    Blend: CC-PV(T+D)Z
  Basis Set: (CC-PV(T+D)Z AUX)
    Blend: CC-PVTZ-JKFIT
  @DF-RKS Final Energy:   -56.54699245494143
    Total Energy =                        -56.5469924549414316
    Molecular point group: cs
  Basis Set: CC-PV(T+D)Z
    Blend: CC-PV(T+D)Z
  Basis Set: (CC-PV(T+D)Z AUX)
    Blend: CC-PVTZ-JKFIT
  @DF-RKS Final Energy:   -56.54698983790659
    Total Energy =                        -56.5469898379065867
  Basis Set: CC-PV(T+D)Z
    Blend: CC-PV(T+D)Z
  Basis Set: (CC-PV(T+D)Z AUX)
    Blend: CC-PVTZ-JKFIT
  @DF-RKS Final Energy:   -56.54698963080764
    Total Energy =                        -56.5469896308076372
  Basis Set: CC-PV(T+D)Z
    Blend: CC-PV(T+D)Z
  Basis Set: (CC-PV(T+D)Z AUX)
    Blend: CC-PVTZ-JKFIT
  @DF-RKS Final Energy:   -56.54699000409717
    Total Energy =                        -56.5469900040971680
  @DF-RKS Final Energy:   -56.54698981298627
    Total Energy =                        -56.5469898129862756
  @DF-RKS Final Energy:   -56.54698557126702
    Total Energy =                        -56.5469855712670153
  @DF-RKS Final Energy:   -56.54699080191362
    Total Energy =                        -56.5469908019136227
  @DF-RKS Final Energy:   -56.54698556809163
    Total Energy =                        -56.5469855680916353
  @DF-RKS Final Energy:   -56.54699080481470
    Total Energy =                        -56.5469908048147047
  @DF-RKS Final Energy:   -56.54699352533706
    Total Energy =                        -56.5469935253370579
  @DF-RKS Final Energy:   -56.54699052067629
    Total Energy =                        -56.5469905206762959
  @DF-RKS Final Energy:   -56.54699110576605
    Total Energy =                        -56.5469911057660539
  @DF-RKS Final Energy:   -56.54699067872087
    Total Energy =                        -56.5469906787208600
  @DF-RKS Final Energy:   -56.54699130129110
    Total Energy =                        -56.5469913012911007
  @DF-RKS Final Energy:   -56.54698978727883
    Total Energy =                        -56.5469897872788252
  @DF-RKS Final Energy:   -56.54698874404190
    Total Energy =                        -56.5469887440418972
  @DF-RKS Final Energy:   -56.54698978732959
    Total Energy =                        -56.5469897873295935
  @DF-RKS Final Energy:   -56.54698874375344
    Total Energy =                        -56.5469887437534382
  **** Optimization is complete! (in 2 steps) ****
    Final optimized geometry and variables:
  @DF-RKS Final Energy:   -56.54699352533721
    Total Energy =                        -56.5469935253372071
  @DF-RKS Final Energy:   -56.54699052067637
    Total Energy =                        -56.5469905206763670
  @DF-RKS Final Energy:   -56.54698978729529
    Total Energy =                        -56.5469897872952885
  @DF-RKS Final Energy:   -56.54698874404205
    Total Energy =                        -56.5469887440420607
  @DF-RKS Final Energy:   -56.54698978732971
    Total Energy =                        -56.5469897873297072
  @DF-RKS Final Energy:   -56.54698874375345
    Total Energy =                        -56.5469887437534524
  @DF-RKS Final Energy:   -56.54699187351892
    Total Energy =                        -56.5469918735189196
  @DF-RKS Final Energy:   -56.54699063878984
    Total Energy =                        -56.5469906387898362
  @DF-RKS Final Energy:   -56.54698550023336
    Total Energy =                        -56.5469855002333617
  @DF-RKS Final Energy:   -56.54698591298386
    Total Energy =                        -56.5469859129838568
  @DF-RKS Final Energy:   -56.54699052775253
    Total Energy =                        -56.5469905277525271
  @DF-RKS Final Energy:   -56.54699096607407
    Total Energy =                        -56.5469909660740697
  @DF-RKS Final Energy:   -56.54699037380862
    Total Energy =                        -56.5469903738086188
  @DF-RKS Final Energy:   -56.54699085285991
    Total Energy =                        -56.5469908528599134
  @DF-RKS Final Energy:   -56.54698591228181
    Total Energy =                        -56.5469859122818193
  @DF-RKS Final Energy:   -56.54698633310207
    Total Energy =                        -56.5469863331020690
  @DF-RKS Final Energy:   -56.54698216962216
    Total Energy =                        -56.5469821696221544
  @DF-RKS Final Energy:   -56.54698422522149
    Total Energy =                        -56.5469842252214860
  Basis Set: CC-PV(T+D)Z
    Blend: CC-PV(T+D)Z
  Basis Set: (CC-PV(T+D)Z AUX)
    Blend: CC-PVTZ-JKFIT
  @DF-RKS Final Energy:   -56.54698940783777
    Total Energy =                        -56.5469894078377635
  Basis Set: CC-PV(T+D)Z
    Blend: CC-PV(T+D)Z
  Basis Set: (CC-PV(T+D)Z AUX)
    Blend: CC-PVTZ-JKFIT
  @DF-RKS Final Energy:   -56.54699107210100
    Total Energy =                        -56.5469910721010081
  Multiplicity = 1
  Basis Set: CC-PV(T+D)Z
    Blend: CC-PV(T+D)Z
  Basis Set: (CC-PV(T+D)Z AUX)
    Blend: CC-PVTZ-JKFIT
  @DF-RKS Final Energy:   -56.54699172175043
    Total Energy =                        -56.5469917217504303
    Molecular point group: c1

    Geometry (in Angstrom), charge = 0, multiplicity = 1:

       Center              X                  Y                   Z               Mass
    ------------   -----------------  -----------------  -----------------  -----------------
         N           -0.044036913994    -0.052920467026    -0.000263112233    14.003074004430
         H            0.563138284400    -0.052648044412     0.810819325563     1.007825032230
         H            0.564045457132    -0.055678316564    -0.809903806151     1.007825032230
         H           -0.515319433872     0.843621866063     0.002740254112     1.007825032230

  Charge       = 0
  Multiplicity = 1
  Basis Set: CC-PV(T+D)Z
    Blend: CC-PV(T+D)Z
  Basis Set: (CC-PV(T+D)Z AUX)
    Blend: CC-PVTZ-JKFIT

    Orbital Energies [Eh]
    ---------------------

    Doubly Occupied:

       1A    -14.472437     2A     -0.969232     3A     -0.559126
       4A     -0.557963     5A     -0.367902

  @DF-RKS Final Energy:   -56.54699172172587

   => Energetics <=

    Nuclear Repulsion Energy =             11.9510496585495272
    One-Electron Energy =                 -99.6995104475870590
    Two-Electron Energy =                  36.7246047468481578
    DFT Exchange-Correlation Energy =      -5.5649924790049603
    Empirical Dispersion Energy =           0.0000000000000000
    VV10 Nonlocal Energy =                  0.0418567994684661
    Total Energy =                        -56.5469917217258669

  Dipole Moment: [D]
     X:     1.0200      Y:     1.2257      Z:     0.0024     Total:     1.5946

  Vibration                       7                   8                   9
  Freq [cm^-1]                1067.3192           1268.1249           1671.4796
  Irrep                           Ap                 App                  Ap
  Reduced mass [u]              1.1802              1.0532              1.0655
  Force const [mDyne/A]         0.7921              0.9979              1.7539

  Vibration                       10                  11                  12
  Freq [cm^-1]                3488.5848           3504.5953           3605.4931
  Irrep                           Ap                 App                  Ap
  Reduced mass [u]              1.0271              1.1020              1.0888
  Force const [mDyne/A]         7.3645              7.9743              8.3392

  ==> Thermochemistry Components <==

  Entropy, S
    Electronic S            0.000 [cal/(mol K)]        0.000 [J/(mol K)]       0.00000000 [mEh/K] (multiplicity = 1)
    Translational S        34.441 [cal/(mol K)]      144.100 [J/(mol K)]       0.05488488 [mEh/K] (mol. weight = 17.0265 [u], P = 101325.00 [Pa])
    Rotational S           13.616 [cal/(mol K)]       56.969 [J/(mol K)]       0.02169818 [mEh/K] (symmetry no. = 1)
    Vibrational S           0.108 [cal/(mol K)]        0.452 [J/(mol K)]       0.00017222 [mEh/K]
  Total S                  48.165 [cal/(mol K)]      201.521 [J/(mol K)]       0.07675528 [mEh/K]
  Correction S              0.000 [cal/(mol K)]        0.000 [J/(mol K)]       0.00000000 [mEh/K]

  Constant volume heat capacity, Cv
    Electronic Cv           0.000 [cal/(mol K)]        0.000 [J/(mol K)]       0.00000000 [mEh/K]
    Translational Cv        2.981 [cal/(mol K)]       12.472 [J/(mol K)]       0.00475022 [mEh/K]
    Rotational Cv           2.981 [cal/(mol K)]       12.472 [J/(mol K)]       0.00475022 [mEh/K]
    Vibrational Cv          0.514 [cal/(mol K)]        2.152 [J/(mol K)]       0.00081948 [mEh/K]
  Total Cv                  6.476 [cal/(mol K)]       27.095 [J/(mol K)]       0.01031991 [mEh/K]
  Correction Cv             0.000 [cal/(mol K)]        0.000 [J/(mol K)]       0.00000000 [mEh/K]

  Constant pressure heat capacity, Cp
    Electronic Cp           0.000 [cal/(mol K)]        0.000 [J/(mol K)]       0.00000000 [mEh/K]
    Translational Cp        4.968 [cal/(mol K)]       20.786 [J/(mol K)]       0.00791703 [mEh/K]
    Rotational Cp           2.981 [cal/(mol K)]       12.472 [J/(mol K)]       0.00475022 [mEh/K]
    Vibrational Cp          0.514 [cal/(mol K)]        2.152 [J/(mol K)]       0.00081948 [mEh/K]
  Total Cp                  8.463 [cal/(mol K)]       35.409 [J/(mol K)]       0.01348672 [mEh/K]
  Correction Cp             0.000 [cal/(mol K)]        0.000 [J/(mol K)]       0.00000000 [mEh/K]

  ==> Thermochemistry Energy Analysis <==

  Raw electronic energy, E0
  Total E0, Electronic energy at well bottom at 0 [K]                  -56.54699353 [Eh]

  Zero-point energy, ZPE_vib = Sum_i nu_i / 2
    Electronic ZPE          0.000 [kcal/mol]        0.000 [kJ/mol]       0.00000000 [Eh]
    Translational ZPE       0.000 [kcal/mol]        0.000 [kJ/mol]       0.00000000 [Eh]
    Rotational ZPE          0.000 [kcal/mol]        0.000 [kJ/mol]       0.00000000 [Eh]
    Vibrational ZPE        20.880 [kcal/mol]       87.361 [kJ/mol]       0.03327400 [Eh]        7302.798 [cm^-1]
  Correction ZPE           20.880 [kcal/mol]       87.361 [kJ/mol]       0.03327400 [Eh]        7302.798 [cm^-1]
  Total ZPE, Electronic energy at 0 [K]                                -56.51371953 [Eh]

  Thermal Energy, E (includes ZPE)
    Electronic E            0.000 [kcal/mol]        0.000 [kJ/mol]       0.00000000 [Eh]
    Translational E         0.889 [kcal/mol]        3.718 [kJ/mol]       0.00141628 [Eh]
    Rotational E            0.889 [kcal/mol]        3.718 [kJ/mol]       0.00141628 [Eh]
    Vibrational E          20.907 [kcal/mol]       87.475 [kJ/mol]       0.03331748 [Eh]
  Correction E             22.684 [kcal/mol]       94.912 [kJ/mol]       0.03615003 [Eh]
  Total E, Electronic energy at  298.15 [K]                            -56.51084349 [Eh]

  Enthalpy, H_trans = E_trans + k_B * T
    Electronic H            0.000 [kcal/mol]        0.000 [kJ/mol]       0.00000000 [Eh]
    Translational H         1.481 [kcal/mol]        6.197 [kJ/mol]       0.00236046 [Eh]
    Rotational H            0.889 [kcal/mol]        3.718 [kJ/mol]       0.00141628 [Eh]
    Vibrational H          20.907 [kcal/mol]       87.475 [kJ/mol]       0.03331748 [Eh]
  Correction H             23.277 [kcal/mol]       97.391 [kJ/mol]       0.03709422 [Eh]
  Total H, Enthalpy at  298.15 [K]                                     -56.50989931 [Eh]

  Gibbs free energy, G = H - T * S
    Electronic G            0.000 [kcal/mol]        0.000 [kJ/mol]       0.00000000 [Eh]
    Translational G        -8.787 [kcal/mol]      -36.766 [kJ/mol]      -0.01400347 [Eh]
    Rotational G           -3.171 [kcal/mol]      -13.267 [kJ/mol]      -0.00505304 [Eh]
    Vibrational G          20.875 [kcal/mol]       87.340 [kJ/mol]       0.03326613 [Eh]
  Correction G              8.917 [kcal/mol]       37.307 [kJ/mol]       0.01420963 [Eh]
  Total G, Free enthalpy at  298.15 [K]                                -56.53278390 [Eh]

*** Psi4 exiting successfully. Buy a developer a beer!
