                               Psi4 1.3.2 release

  ==> Input File <==

--------------------------------------------------------------------------
memory 144 GB

molecule {
0 1
N 0.0000000000 0.0000000000 0.0000000000
N 0.0000000000 0.0000000000 1.1291000000
O 0.0000000000 -0.0000000000 2.3161000000
}

set dynamic_level 1
set basis cc-pV(T+d)Z

optimize("wB97M-V")
frequencies("wB97M-V")
--------------------------------------------------------------------------

    Molecular point group: c2v
  Charge       = 0
  Multiplicity = 1
  Basis Set: CC-PV(T+D)Z
    Blend: CC-PV(T+D)Z
  Basis Set: (CC-PV(T+D)Z AUX)
    Blend: CC-PVTZ-JKFIT
  @DF-RKS Final Energy:  -184.68569367173276
    Total Energy =                       -184.6856936717327642
    Molecular point group: c2v
  Basis Set: CC-PV(T+D)Z
    Blend: CC-PV(T+D)Z
  Basis Set: (CC-PV(T+D)Z AUX)
    Blend: CC-PVTZ-JKFIT
  @DF-RKS Final Energy:  -184.68563964083793
    Total Energy =                       -184.6856396408379055
  Basis Set: CC-PV(T+D)Z
    Blend: CC-PV(T+D)Z
  Basis Set: (CC-PV(T+D)Z AUX)
    Blend: CC-PVTZ-JKFIT
  @DF-RKS Final Energy:  -184.68574451308109
    Total Energy =                       -184.6857445130810902
  Basis Set: CC-PV(T+D)Z
    Blend: CC-PV(T+D)Z
  Basis Set: (CC-PV(T+D)Z AUX)
    Blend: CC-PVTZ-JKFIT
  @DF-RKS Final Energy:  -184.68570782984969
    Total Energy =                       -184.6857078298496901
  @DF-RKS Final Energy:  -184.68567613261757
    Total Energy =                       -184.6856761326175445
  @DF-RKS Final Energy:  -184.68612902868313
    Total Energy =                       -184.6861290286831263
  @DF-RKS Final Energy:  -184.68612032985712
    Total Energy =                       -184.6861203298571183
  @DF-RKS Final Energy:  -184.68613425748009
    Total Energy =                       -184.6861342574800915
  @DF-RKS Final Energy:  -184.68613030159355
    Total Energy =                       -184.6861303015935505
  @DF-RKS Final Energy:  -184.68612418542889
    Total Energy =                       -184.6861241854288949
  @DF-RKS Final Energy:  -184.68613603140670
    Total Energy =                       -184.6861360314067042
  @DF-RKS Final Energy:  -184.68613450322533
    Total Energy =                       -184.6861345032253325
  @DF-RKS Final Energy:  -184.68613404458947
    Total Energy =                       -184.6861340445894655
  @DF-RKS Final Energy:  -184.68613444996231
    Total Energy =                       -184.6861344499623101
  @DF-RKS Final Energy:  -184.68613401808148
    Total Energy =                       -184.6861340180814750
  **** Optimization is complete! (in 3 steps) ****
    Final optimized geometry and variables:
  @DF-RKS Final Energy:  -184.68613603164678
    Total Energy =                       -184.6861360316467824
  @DF-RKS Final Energy:  -184.68613450331506
    Total Energy =                       -184.6861345033150599
  @DF-RKS Final Energy:  -184.68613404440029
    Total Energy =                       -184.6861340444002906
  @DF-RKS Final Energy:  -184.68613445030479
    Total Energy =                       -184.6861344503047917
  @DF-RKS Final Energy:  -184.68613401855714
    Total Energy =                       -184.6861340185571407
  @DF-RKS Final Energy:  -184.68613603164690
    Total Energy =                       -184.6861360316468677
  @DF-RKS Final Energy:  -184.68613450331492
    Total Energy =                       -184.6861345033149462
  @DF-RKS Final Energy:  -184.68613404440026
    Total Energy =                       -184.6861340444002622
  @DF-RKS Final Energy:  -184.68613445030471
    Total Energy =                       -184.6861344503047064
  @DF-RKS Final Energy:  -184.68613401855691
    Total Energy =                       -184.6861340185568849
  Basis Set: CC-PV(T+D)Z
    Blend: CC-PV(T+D)Z
  Basis Set: (CC-PV(T+D)Z AUX)
    Blend: CC-PVTZ-JKFIT
  @DF-RKS Final Energy:  -184.68613387487980
    Total Energy =                       -184.6861338748798005
  Basis Set: CC-PV(T+D)Z
    Blend: CC-PV(T+D)Z
  Basis Set: (CC-PV(T+D)Z AUX)
    Blend: CC-PVTZ-JKFIT
  @DF-RKS Final Energy:  -184.68613476061790
    Total Energy =                       -184.6861347606179322
  Multiplicity = 1
  Basis Set: CC-PV(T+D)Z
    Blend: CC-PV(T+D)Z
  Basis Set: (CC-PV(T+D)Z AUX)
    Blend: CC-PVTZ-JKFIT
  @DF-RKS Final Energy:  -184.68613584482810
    Total Energy =                       -184.6861358448281010
    Molecular point group: cs

    Geometry (in Angstrom), charge = 0, multiplicity = 1:

       Center              X                  Y                   Z               Mass
    ------------   -----------------  -----------------  -----------------  -----------------
         N            0.000000000000    -0.000299930957    -1.190695168607    14.003074004430
         N            0.000000000000     0.000582966185    -0.074733483898    14.003074004430
         O            0.000000000000    -0.000247788959     1.107845305199    15.994914619570

  Charge       = 0
  Multiplicity = 1
  Basis Set: CC-PV(T+D)Z
    Blend: CC-PV(T+D)Z
  Basis Set: (CC-PV(T+D)Z AUX)
    Blend: CC-PVTZ-JKFIT

    Orbital Energies [Eh]
    ---------------------

    Doubly Occupied:

       1Ap   -19.425608     2Ap   -14.739390     3Ap   -14.602770
       4Ap    -1.377260     5Ap    -1.219405     6Ap    -0.716905
       1App   -0.682001     7Ap    -0.682001     8Ap    -0.590309
       2App   -0.440122     9Ap    -0.440122

  @DF-RKS Final Energy:  -184.68613584444296

   => Energetics <=

    Nuclear Repulsion Energy =             61.1864945364712014
    One-Electron Energy =                -371.7539293268615666
    Two-Electron Energy =                 141.9769698903090216
    DFT Exchange-Correlation Energy =     -16.1868954503909706
    Empirical Dispersion Energy =           0.0000000000000000
    VV10 Nonlocal Energy =                  0.0912245060293764
    Total Energy =                       -184.6861358444429868

  Dipole Moment: [D]
     X:     0.0000      Y:     0.0012      Z:    -0.1598     Total:     0.1598

  Vibration                       6                   7                   8
  Freq [cm^-1]                 628.4338            629.0813           1345.7775
  Irrep                           B1                  B2                  A1
  Reduced mass [u]             14.2520             14.2520             15.1266
  Force const [mDyne/A]         3.3162              3.3231             16.1413

  Vibration                       9
  Freq [cm^-1]                2388.3159
  Irrep                           A1
  Reduced mass [u]             14.0733
  Force const [mDyne/A]        47.2964

  ==> Thermochemistry Components <==

  Entropy, S
    Electronic S            0.000 [cal/(mol K)]        0.000 [J/(mol K)]       0.00000000 [mEh/K] (multiplicity = 1)
    Translational S        37.271 [cal/(mol K)]      155.941 [J/(mol K)]       0.05939493 [mEh/K] (mol. weight = 44.0011 [u], P = 101325.00 [Pa])
    Rotational S           14.282 [cal/(mol K)]       59.755 [J/(mol K)]       0.02275945 [mEh/K] (symmetry no. = 1)
    Vibrational S           0.828 [cal/(mol K)]        3.466 [J/(mol K)]       0.00132000 [mEh/K]
  Total S                  52.381 [cal/(mol K)]      219.162 [J/(mol K)]       0.08347438 [mEh/K]
  Correction S              0.000 [cal/(mol K)]        0.000 [J/(mol K)]       0.00000000 [mEh/K]

  Constant volume heat capacity, Cv
    Electronic Cv           0.000 [cal/(mol K)]        0.000 [J/(mol K)]       0.00000000 [mEh/K]
    Translational Cv        2.981 [cal/(mol K)]       12.472 [J/(mol K)]       0.00475022 [mEh/K]
    Rotational Cv           1.987 [cal/(mol K)]        8.314 [J/(mol K)]       0.00316681 [mEh/K]
    Vibrational Cv          2.073 [cal/(mol K)]        8.672 [J/(mol K)]       0.00330297 [mEh/K]
  Total Cv                  7.041 [cal/(mol K)]       29.458 [J/(mol K)]       0.01122000 [mEh/K]
  Correction Cv             0.000 [cal/(mol K)]        0.000 [J/(mol K)]       0.00000000 [mEh/K]

  Constant pressure heat capacity, Cp
    Electronic Cp           0.000 [cal/(mol K)]        0.000 [J/(mol K)]       0.00000000 [mEh/K]
    Translational Cp        4.968 [cal/(mol K)]       20.786 [J/(mol K)]       0.00791703 [mEh/K]
    Rotational Cp           1.987 [cal/(mol K)]        8.314 [J/(mol K)]       0.00316681 [mEh/K]
    Vibrational Cp          2.073 [cal/(mol K)]        8.672 [J/(mol K)]       0.00330297 [mEh/K]
  Total Cp                  9.028 [cal/(mol K)]       37.773 [J/(mol K)]       0.01438681 [mEh/K]
  Correction Cp             0.000 [cal/(mol K)]        0.000 [J/(mol K)]       0.00000000 [mEh/K]

  ==> Thermochemistry Energy Analysis <==

  Raw electronic energy, E0
  Total E0, Electronic energy at well bottom at 0 [K]                 -184.68613603 [Eh]

  Zero-point energy, ZPE_vib = Sum_i nu_i / 2
    Electronic ZPE          0.000 [kcal/mol]        0.000 [kJ/mol]       0.00000000 [Eh]
    Translational ZPE       0.000 [kcal/mol]        0.000 [kJ/mol]       0.00000000 [Eh]
    Rotational ZPE          0.000 [kcal/mol]        0.000 [kJ/mol]       0.00000000 [Eh]
    Vibrational ZPE         7.136 [kcal/mol]       29.856 [kJ/mol]       0.01137172 [Eh]        2495.804 [cm^-1]
  Correction ZPE            7.136 [kcal/mol]       29.856 [kJ/mol]       0.01137172 [Eh]        2495.804 [cm^-1]
  Total ZPE, Electronic energy at 0 [K]                               -184.67476431 [Eh]

  Thermal Energy, E (includes ZPE)
    Electronic E            0.000 [kcal/mol]        0.000 [kJ/mol]       0.00000000 [Eh]
    Translational E         0.889 [kcal/mol]        3.718 [kJ/mol]       0.00141628 [Eh]
    Rotational E            0.592 [kcal/mol]        2.479 [kJ/mol]       0.00094418 [Eh]
    Vibrational E           7.323 [kcal/mol]       30.641 [kJ/mol]       0.01167072 [Eh]
  Correction E              8.805 [kcal/mol]       36.839 [kJ/mol]       0.01403119 [Eh]
  Total E, Electronic energy at  298.15 [K]                           -184.67210485 [Eh]

  Enthalpy, H_trans = E_trans + k_B * T
    Electronic H            0.000 [kcal/mol]        0.000 [kJ/mol]       0.00000000 [Eh]
    Translational H         1.481 [kcal/mol]        6.197 [kJ/mol]       0.00236046 [Eh]
    Rotational H            0.592 [kcal/mol]        2.479 [kJ/mol]       0.00094418 [Eh]
    Vibrational H           7.323 [kcal/mol]       30.641 [kJ/mol]       0.01167072 [Eh]
  Correction H              9.397 [kcal/mol]       39.318 [kJ/mol]       0.01497537 [Eh]
  Total H, Enthalpy at  298.15 [K]                                    -184.67116066 [Eh]

  Gibbs free energy, G = H - T * S
    Electronic G            0.000 [kcal/mol]        0.000 [kJ/mol]       0.00000000 [Eh]
    Translational G        -9.631 [kcal/mol]      -40.297 [kJ/mol]      -0.01534814 [Eh]
    Rotational G           -3.666 [kcal/mol]      -15.337 [kJ/mol]      -0.00584155 [Eh]
    Vibrational G           7.077 [kcal/mol]       29.608 [kJ/mol]       0.01127717 [Eh]
  Correction G             -6.220 [kcal/mol]      -26.025 [kJ/mol]      -0.00991252 [Eh]
  Total G, Free enthalpy at  298.15 [K]                               -184.69604855 [Eh]

*** Psi4 exiting successfully. Buy a developer a beer!
