                               Psi4 1.3.2 release

  ==> Input File <==

--------------------------------------------------------------------------
memory 144 GB

molecule {
0 1
O 0.0000000000 0.0000000000 0.0000000000
C 0.0000000000 0.0000000000 1.1584320400
S 0.0000000000 0.0000000000 2.7252829900
}

set dynamic_level 1
set basis cc-pV(T+d)Z

optimize("wB97M-V")
frequencies("wB97M-V")
--------------------------------------------------------------------------

    Molecular point group: c2v
  Charge       = 0
  Multiplicity = 1
  Basis Set: CC-PV(T+D)Z
    Blend: CC-PV(T+D)Z
  Basis Set: (CC-PV(T+D)Z AUX)
    Blend: CC-PVTZ-JKFIT
  @DF-RKS Final Energy:  -511.55312265394542
    Total Energy =                       -511.5531226539454224
    Molecular point group: c2v
  Basis Set: CC-PV(T+D)Z
    Blend: CC-PV(T+D)Z
  Basis Set: (CC-PV(T+D)Z AUX)
    Blend: CC-PVTZ-JKFIT
  @DF-RKS Final Energy:  -511.55310080933151
    Total Energy =                       -511.5531008093315108
  Basis Set: CC-PV(T+D)Z
    Blend: CC-PV(T+D)Z
  Basis Set: (CC-PV(T+D)Z AUX)
    Blend: CC-PVTZ-JKFIT
  @DF-RKS Final Energy:  -511.55314224632792
    Total Energy =                       -511.5531422463279796
  Basis Set: CC-PV(T+D)Z
    Blend: CC-PV(T+D)Z
  Basis Set: (CC-PV(T+D)Z AUX)
    Blend: CC-PVTZ-JKFIT
  @DF-RKS Final Energy:  -511.55312948402394
    Total Energy =                       -511.5531294840239411
  @DF-RKS Final Energy:  -511.55311318533666
    Total Energy =                       -511.5531131853366560
  @DF-RKS Final Energy:  -511.55323683796223
    Total Energy =                       -511.5532368379622881
  @DF-RKS Final Energy:  -511.55323333649591
    Total Energy =                       -511.5532333364959072
  @DF-RKS Final Energy:  -511.55323799373059
    Total Energy =                       -511.5532379937306473
  @DF-RKS Final Energy:  -511.55323720205769
    Total Energy =                       -511.5532372020576872
  @DF-RKS Final Energy:  -511.55323373210587
    Total Energy =                       -511.5532337321058662
  @DF-RKS Final Energy:  -511.55323798145486
    Total Energy =                       -511.5532379814548563
  @DF-RKS Final Energy:  -511.55323672788523
    Total Energy =                       -511.5532367278852348
  @DF-RKS Final Energy:  -511.55323687794726
    Total Energy =                       -511.5532368779472563
  @DF-RKS Final Energy:  -511.55323684402958
    Total Energy =                       -511.5532368440295841
  @DF-RKS Final Energy:  -511.55323636858139
    Total Energy =                       -511.5532363685813948
  **** Optimization is complete! (in 3 steps) ****
    Final optimized geometry and variables:
  @DF-RKS Final Energy:  -511.55323798145560
    Total Energy =                       -511.5532379814555952
  @DF-RKS Final Energy:  -511.55323672788501
    Total Energy =                       -511.5532367278850074
  @DF-RKS Final Energy:  -511.55323687794754
    Total Energy =                       -511.5532368779475405
  @DF-RKS Final Energy:  -511.55323684402970
    Total Energy =                       -511.5532368440296977
  @DF-RKS Final Energy:  -511.55323636858117
    Total Energy =                       -511.5532363685811674
  @DF-RKS Final Energy:  -511.55323798145497
    Total Energy =                       -511.5532379814549699
  @DF-RKS Final Energy:  -511.55323672788518
    Total Energy =                       -511.5532367278851780
  @DF-RKS Final Energy:  -511.55323687794777
    Total Energy =                       -511.5532368779477679
  @DF-RKS Final Energy:  -511.55323684403010
    Total Energy =                       -511.5532368440300957
  @DF-RKS Final Energy:  -511.55323636858157
    Total Energy =                       -511.5532363685815653
  Basis Set: CC-PV(T+D)Z
    Blend: CC-PV(T+D)Z
  Basis Set: (CC-PV(T+D)Z AUX)
    Blend: CC-PVTZ-JKFIT
  @DF-RKS Final Energy:  -511.55323706353789
    Total Energy =                       -511.5532370635378925
  Basis Set: CC-PV(T+D)Z
    Blend: CC-PV(T+D)Z
  Basis Set: (CC-PV(T+D)Z AUX)
    Blend: CC-PVTZ-JKFIT
  @DF-RKS Final Energy:  -511.55323738720034
    Total Energy =                       -511.5532373872002836
  Multiplicity = 1
  Basis Set: CC-PV(T+D)Z
    Blend: CC-PV(T+D)Z
  Basis Set: (CC-PV(T+D)Z AUX)
    Blend: CC-PVTZ-JKFIT
  @DF-RKS Final Energy:  -511.55323784605764
    Total Energy =                       -511.5532378460576979
    Molecular point group: cs

    Geometry (in Angstrom), charge = 0, multiplicity = 1:

       Center              X                  Y                   Z               Mass
    ------------   -----------------  -----------------  -----------------  -----------------
         O            0.000000000000    -0.000287467351    -1.677276386692    15.994914619570
         C            0.000000000000     0.000665782729    -0.525403079706    12.000000000000
         S            0.000000000000    -0.000106073110     1.036302258127    31.972071174400

  Charge       = 0
  Multiplicity = 1
  Basis Set: CC-PV(T+D)Z
    Blend: CC-PV(T+D)Z
  Basis Set: (CC-PV(T+D)Z AUX)
    Blend: CC-PVTZ-JKFIT

    Orbital Energies [Eh]
    ---------------------

    Doubly Occupied:

       1Ap   -89.233042     2Ap   -19.420612     3Ap   -10.512856
       4Ap    -8.149082     5Ap    -6.059481     1App   -6.053361
       6Ap    -6.053361     7Ap    -1.277061     8Ap    -0.943103
       9Ap    -0.667325     2App   -0.592746    10Ap    -0.592746
      11Ap    -0.574338     3App   -0.393449    12Ap    -0.393449

  @DF-RKS Final Energy:  -511.55323784620930

   => Energetics <=

    Nuclear Repulsion Energy =             79.5420412742857081
    One-Electron Energy =                -861.6227755946192701
    Two-Electron Energy =                 300.3157729688561517
    DFT Exchange-Correlation Energy =     -29.9127594080992836
    Empirical Dispersion Energy =           0.0000000000000000
    VV10 Nonlocal Energy =                  0.1244829133674704
    Total Energy =                       -511.5532378462092993

  Dipole Moment: [D]
     X:     0.0000      Y:     0.0008      Z:     0.5926     Total:     0.5926

  Vibration                       6                   7                   8
  Freq [cm^-1]                 534.7010            535.0007            887.6035
  Irrep                           B2                  B1                  A1
  Reduced mass [u]             13.0329             13.0329             19.5923
  Force const [mDyne/A]         2.1954              2.1979              9.0944

  Vibration                       9
  Freq [cm^-1]                2147.2251
  Irrep                           A1
  Reduced mass [u]             13.1471
  Force const [mDyne/A]        35.7137

  ==> Thermochemistry Components <==

  Entropy, S
    Electronic S            0.000 [cal/(mol K)]        0.000 [J/(mol K)]       0.00000000 [mEh/K] (multiplicity = 1)
    Translational S        38.194 [cal/(mol K)]      159.802 [J/(mol K)]       0.06086550 [mEh/K] (mol. weight = 59.9670 [u], P = 101325.00 [Pa])
    Rotational S           15.746 [cal/(mol K)]       65.880 [J/(mol K)]       0.02509243 [mEh/K] (symmetry no. = 1)
    Vibrational S           1.300 [cal/(mol K)]        5.441 [J/(mol K)]       0.00207222 [mEh/K]
  Total S                  55.240 [cal/(mol K)]      231.123 [J/(mol K)]       0.08803015 [mEh/K]
  Correction S              0.000 [cal/(mol K)]        0.000 [J/(mol K)]       0.00000000 [mEh/K]

  Constant volume heat capacity, Cv
    Electronic Cv           0.000 [cal/(mol K)]        0.000 [J/(mol K)]       0.00000000 [mEh/K]
    Translational Cv        2.981 [cal/(mol K)]       12.472 [J/(mol K)]       0.00475022 [mEh/K]
    Rotational Cv           1.987 [cal/(mol K)]        8.314 [J/(mol K)]       0.00316681 [mEh/K]
    Vibrational Cv          2.870 [cal/(mol K)]       12.007 [J/(mol K)]       0.00457333 [mEh/K]
  Total Cv                  7.838 [cal/(mol K)]       32.793 [J/(mol K)]       0.01249036 [mEh/K]
  Correction Cv             0.000 [cal/(mol K)]        0.000 [J/(mol K)]       0.00000000 [mEh/K]

  Constant pressure heat capacity, Cp
    Electronic Cp           0.000 [cal/(mol K)]        0.000 [J/(mol K)]       0.00000000 [mEh/K]
    Translational Cp        4.968 [cal/(mol K)]       20.786 [J/(mol K)]       0.00791703 [mEh/K]
    Rotational Cp           1.987 [cal/(mol K)]        8.314 [J/(mol K)]       0.00316681 [mEh/K]
    Vibrational Cp          2.870 [cal/(mol K)]       12.007 [J/(mol K)]       0.00457333 [mEh/K]
  Total Cp                  9.825 [cal/(mol K)]       41.108 [J/(mol K)]       0.01565717 [mEh/K]
  Correction Cp             0.000 [cal/(mol K)]        0.000 [J/(mol K)]       0.00000000 [mEh/K]

  ==> Thermochemistry Energy Analysis <==

  Raw electronic energy, E0
  Total E0, Electronic energy at well bottom at 0 [K]                 -511.55323798 [Eh]

  Zero-point energy, ZPE_vib = Sum_i nu_i / 2
    Electronic ZPE          0.000 [kcal/mol]        0.000 [kJ/mol]       0.00000000 [Eh]
    Translational ZPE       0.000 [kcal/mol]        0.000 [kJ/mol]       0.00000000 [Eh]
    Rotational ZPE          0.000 [kcal/mol]        0.000 [kJ/mol]       0.00000000 [Eh]
    Vibrational ZPE         5.868 [kcal/mol]       24.551 [kJ/mol]       0.00935081 [Eh]        2052.265 [cm^-1]
  Correction ZPE            5.868 [kcal/mol]       24.551 [kJ/mol]       0.00935081 [Eh]        2052.265 [cm^-1]
  Total ZPE, Electronic energy at 0 [K]                               -511.54388717 [Eh]

  Thermal Energy, E (includes ZPE)
    Electronic E            0.000 [kcal/mol]        0.000 [kJ/mol]       0.00000000 [Eh]
    Translational E         0.889 [kcal/mol]        3.718 [kJ/mol]       0.00141628 [Eh]
    Rotational E            0.592 [kcal/mol]        2.479 [kJ/mol]       0.00094418 [Eh]
    Vibrational E           6.154 [kcal/mol]       25.748 [kJ/mol]       0.00980685 [Eh]
  Correction E              7.635 [kcal/mol]       31.945 [kJ/mol]       0.01216731 [Eh]
  Total E, Electronic energy at  298.15 [K]                           -511.54107067 [Eh]

  Enthalpy, H_trans = E_trans + k_B * T
    Electronic H            0.000 [kcal/mol]        0.000 [kJ/mol]       0.00000000 [Eh]
    Translational H         1.481 [kcal/mol]        6.197 [kJ/mol]       0.00236046 [Eh]
    Rotational H            0.592 [kcal/mol]        2.479 [kJ/mol]       0.00094418 [Eh]
    Vibrational H           6.154 [kcal/mol]       25.748 [kJ/mol]       0.00980685 [Eh]
  Correction H              8.228 [kcal/mol]       34.424 [kJ/mol]       0.01311150 [Eh]
  Total H, Enthalpy at  298.15 [K]                                    -511.54012648 [Eh]

  Gibbs free energy, G = H - T * S
    Electronic G            0.000 [kcal/mol]        0.000 [kJ/mol]       0.00000000 [Eh]
    Translational G        -9.906 [kcal/mol]      -41.448 [kJ/mol]      -0.01578659 [Eh]
    Rotational G           -4.102 [kcal/mol]      -17.163 [kJ/mol]      -0.00653712 [Eh]
    Vibrational G           5.766 [kcal/mol]       24.126 [kJ/mol]       0.00918902 [Eh]
  Correction G             -8.242 [kcal/mol]      -34.485 [kJ/mol]      -0.01313469 [Eh]
  Total G, Free enthalpy at  298.15 [K]                               -511.56637268 [Eh]

*** Psi4 exiting successfully. Buy a developer a beer!
