                               Psi4 1.3.2 release

  ==> Input File <==

--------------------------------------------------------------------------
memory 144 GB

molecule {
0 1
P 0.0000000000 0.0000000000 -0.0679917919
H 1.1903431933 0.0000000000 0.6964572780
H -0.5951715967 -1.0308674445 0.6964572780
H -0.5951715967 1.0308674445 0.6964572780
}

set dynamic_level 1
set basis cc-pV(T+d)Z

optimize("wB97M-V")
frequencies("wB97M-V")
--------------------------------------------------------------------------

    Molecular point group: cs
  Charge       = 0
  Multiplicity = 1
  Basis Set: CC-PV(T+D)Z
    Blend: CC-PV(T+D)Z
  Basis Set: (CC-PV(T+D)Z AUX)
    Blend: CC-PVTZ-JKFIT
  @DF-RKS Final Energy:  -343.12124207406009
    Total Energy =                       -343.1212420740600919
    Molecular point group: cs
  Basis Set: CC-PV(T+D)Z
    Blend: CC-PV(T+D)Z
  Basis Set: (CC-PV(T+D)Z AUX)
    Blend: CC-PVTZ-JKFIT
  @DF-RKS Final Energy:  -343.12124004814905
    Total Energy =                       -343.1212400481490477
  Basis Set: CC-PV(T+D)Z
    Blend: CC-PV(T+D)Z
  Basis Set: (CC-PV(T+D)Z AUX)
    Blend: CC-PVTZ-JKFIT
  @DF-RKS Final Energy:  -343.12124006280789
    Total Energy =                       -343.1212400628078854
  Basis Set: CC-PV(T+D)Z
    Blend: CC-PV(T+D)Z
  Basis Set: (CC-PV(T+D)Z AUX)
    Blend: CC-PVTZ-JKFIT
  @DF-RKS Final Energy:  -343.12124026133870
    Total Energy =                       -343.1212402613387553
  @DF-RKS Final Energy:  -343.12124166736214
    Total Energy =                       -343.1212416673620851
  @DF-RKS Final Energy:  -343.12124617054485
    Total Energy =                       -343.1212461705448504
  @DF-RKS Final Energy:  -343.12123443961798
    Total Energy =                       -343.1212344396180356
  @DF-RKS Final Energy:  -343.12124619974014
    Total Energy =                       -343.1212461997400851
  @DF-RKS Final Energy:  -343.12123441036852
    Total Energy =                       -343.1212344103685155
  @DF-RKS Final Energy:  -343.12125837089178
    Total Energy =                       -343.1212583708917805
  @DF-RKS Final Energy:  -343.12125638441881
    Total Energy =                       -343.1212563844188139
  @DF-RKS Final Energy:  -343.12125628676927
    Total Energy =                       -343.1212562867692100
  @DF-RKS Final Energy:  -343.12125624070916
    Total Energy =                       -343.1212562407091582
  @DF-RKS Final Energy:  -343.12125824872834
    Total Energy =                       -343.1212582487283385
  @DF-RKS Final Energy:  -343.12125586909718
    Total Energy =                       -343.1212558690971264
  @DF-RKS Final Energy:  -343.12125731568511
    Total Energy =                       -343.1212573156850567
  @DF-RKS Final Energy:  -343.12125586464811
    Total Energy =                       -343.1212558646481057
  @DF-RKS Final Energy:  -343.12125732027874
    Total Energy =                       -343.1212573202787439
  **** Optimization is complete! (in 2 steps) ****
    Final optimized geometry and variables:
  @DF-RKS Final Energy:  -343.12125837079742
    Total Energy =                       -343.1212583707974204
  @DF-RKS Final Energy:  -343.12125638463277
    Total Energy =                       -343.1212563846327726
  @DF-RKS Final Energy:  -343.12125586905711
    Total Energy =                       -343.1212558690570518
  @DF-RKS Final Energy:  -343.12125731581267
    Total Energy =                       -343.1212573158126702
  @DF-RKS Final Energy:  -343.12125586472280
    Total Energy =                       -343.1212558647228548
  @DF-RKS Final Energy:  -343.12125732020121
    Total Energy =                       -343.1212573202011527
  @DF-RKS Final Energy:  -343.12125616392831
    Total Energy =                       -343.1212561639283081
  @DF-RKS Final Energy:  -343.12125423908321
    Total Energy =                       -343.1212542390832141
  @DF-RKS Final Energy:  -343.12125377816261
    Total Energy =                       -343.1212537781625542
  @DF-RKS Final Energy:  -343.12125238540722
    Total Energy =                       -343.1212523854072174
  @DF-RKS Final Energy:  -343.12125574243947
    Total Energy =                       -343.1212557424395300
  @DF-RKS Final Energy:  -343.12125226732712
    Total Energy =                       -343.1212522673271792
  @DF-RKS Final Energy:  -343.12125671866272
    Total Energy =                       -343.1212567186627211
  @DF-RKS Final Energy:  -343.12125536556812
    Total Energy =                       -343.1212553655681177
  @DF-RKS Final Energy:  -343.12125574698274
    Total Energy =                       -343.1212557469827402
  @DF-RKS Final Energy:  -343.12125226313003
    Total Energy =                       -343.1212522631299748
  @DF-RKS Final Energy:  -343.12125548873513
    Total Energy =                       -343.1212554887351871
  @DF-RKS Final Energy:  -343.12125257748829
    Total Energy =                       -343.1212525774883488
  Basis Set: CC-PV(T+D)Z
    Blend: CC-PV(T+D)Z
  Basis Set: (CC-PV(T+D)Z AUX)
    Blend: CC-PVTZ-JKFIT
  @DF-RKS Final Energy:  -343.12125631381855
    Total Energy =                       -343.1212563138185487
  Basis Set: CC-PV(T+D)Z
    Blend: CC-PV(T+D)Z
  Basis Set: (CC-PV(T+D)Z AUX)
    Blend: CC-PVTZ-JKFIT
  @DF-RKS Final Energy:  -343.12125604439251
    Total Energy =                       -343.1212560443924531
  Multiplicity = 1
  Basis Set: CC-PV(T+D)Z
    Blend: CC-PV(T+D)Z
  Basis Set: (CC-PV(T+D)Z AUX)
    Blend: CC-PVTZ-JKFIT
  @DF-RKS Final Energy:  -343.12125610365524
    Total Energy =                       -343.1212561036552415
    Molecular point group: c1

    Geometry (in Angstrom), charge = 0, multiplicity = 1:

       Center              X                  Y                   Z               Mass
    ------------   -----------------  -----------------  -----------------  -----------------
         P           -0.000000547899     0.068447210922    -0.000106594469    30.973761998420
         H            0.591048003617    -0.702432037060     1.026301038429     1.007825032230
         H            0.593683626272    -0.699974494270    -1.025638687604     1.007825032230
         H           -1.184714791169    -0.701200298001     0.002613646101     1.007825032230

  Charge       = 0
  Multiplicity = 1
  Basis Set: CC-PV(T+D)Z
    Blend: CC-PV(T+D)Z
  Basis Set: (CC-PV(T+D)Z AUX)
    Blend: CC-PVTZ-JKFIT

    Orbital Energies [Eh]
    ---------------------

    Doubly Occupied:

       1A    -77.382279     2A     -6.719455     3A     -4.831759
       4A     -4.831758     5A     -4.828085     6A     -0.761570
       7A     -0.479463     8A     -0.478787     9A     -0.369660

  @DF-RKS Final Energy:  -343.12125610362085

   => Energetics <=

    Nuclear Repulsion Energy =             17.6293123477196616
    One-Electron Energy =                -508.6585168357954103
    Two-Electron Energy =                 166.2352121137645611
    DFT Exchange-Correlation Energy =     -18.4026290717529442
    Empirical Dispersion Energy =           0.0000000000000000
    VV10 Nonlocal Energy =                  0.0753653424432608
    Total Energy =                       -343.1212561036208513

  Dipole Moment: [D]
     X:     0.0000      Y:    -0.5653      Z:    -0.0027     Total:     0.5653

  Vibration                       7                   8                   9
  Freq [cm^-1]                1017.4520           1141.1587           1542.1729
  Irrep                           Ap                  Ap                 App
  Reduced mass [u]              1.0749              1.0254              1.0362
  Force const [mDyne/A]         0.6556              0.7868              1.4520

  Vibration                       10                  11                  12
  Freq [cm^-1]                2435.0432           2435.9851           2624.5078
  Irrep                           Ap                  Ap                 App
  Reduced mass [u]              1.0326              1.0402              1.0297
  Force const [mDyne/A]         3.6074              3.6369              4.1789

  ==> Thermochemistry Components <==

  Entropy, S
    Electronic S            0.000 [cal/(mol K)]        0.000 [J/(mol K)]       0.00000000 [mEh/K] (multiplicity = 1)
    Translational S        36.502 [cal/(mol K)]      152.724 [J/(mol K)]       0.05816968 [mEh/K] (mol. weight = 33.9972 [u], P = 101325.00 [Pa])
    Rotational S           15.662 [cal/(mol K)]       65.528 [J/(mol K)]       0.02495840 [mEh/K] (symmetry no. = 1)
    Vibrational S           0.150 [cal/(mol K)]        0.628 [J/(mol K)]       0.00023933 [mEh/K]
  Total S                  52.314 [cal/(mol K)]      218.881 [J/(mol K)]       0.08336741 [mEh/K]
  Correction S              0.000 [cal/(mol K)]        0.000 [J/(mol K)]       0.00000000 [mEh/K]

  Constant volume heat capacity, Cv
    Electronic Cv           0.000 [cal/(mol K)]        0.000 [J/(mol K)]       0.00000000 [mEh/K]
    Translational Cv        2.981 [cal/(mol K)]       12.472 [J/(mol K)]       0.00475022 [mEh/K]
    Rotational Cv           2.981 [cal/(mol K)]       12.472 [J/(mol K)]       0.00475022 [mEh/K]
    Vibrational Cv          0.675 [cal/(mol K)]        2.824 [J/(mol K)]       0.00107566 [mEh/K]
  Total Cv                  6.637 [cal/(mol K)]       27.768 [J/(mol K)]       0.01057609 [mEh/K]
  Correction Cv             0.000 [cal/(mol K)]        0.000 [J/(mol K)]       0.00000000 [mEh/K]

  Constant pressure heat capacity, Cp
    Electronic Cp           0.000 [cal/(mol K)]        0.000 [J/(mol K)]       0.00000000 [mEh/K]
    Translational Cp        4.968 [cal/(mol K)]       20.786 [J/(mol K)]       0.00791703 [mEh/K]
    Rotational Cp           2.981 [cal/(mol K)]       12.472 [J/(mol K)]       0.00475022 [mEh/K]
    Vibrational Cp          0.675 [cal/(mol K)]        2.824 [J/(mol K)]       0.00107566 [mEh/K]
  Total Cp                  8.624 [cal/(mol K)]       36.082 [J/(mol K)]       0.01374290 [mEh/K]
  Correction Cp             0.000 [cal/(mol K)]        0.000 [J/(mol K)]       0.00000000 [mEh/K]

  ==> Thermochemistry Energy Analysis <==

  Raw electronic energy, E0
  Total E0, Electronic energy at well bottom at 0 [K]                 -343.12125837 [Eh]

  Zero-point energy, ZPE_vib = Sum_i nu_i / 2
    Electronic ZPE          0.000 [kcal/mol]        0.000 [kJ/mol]       0.00000000 [Eh]
    Translational ZPE       0.000 [kcal/mol]        0.000 [kJ/mol]       0.00000000 [Eh]
    Rotational ZPE          0.000 [kcal/mol]        0.000 [kJ/mol]       0.00000000 [Eh]
    Vibrational ZPE        16.006 [kcal/mol]       66.969 [kJ/mol]       0.02550709 [Eh]        5598.160 [cm^-1]
  Correction ZPE           16.006 [kcal/mol]       66.969 [kJ/mol]       0.02550709 [Eh]        5598.160 [cm^-1]
  Total ZPE, Electronic energy at 0 [K]                               -343.09575128 [Eh]

  Thermal Energy, E (includes ZPE)
    Electronic E            0.000 [kcal/mol]        0.000 [kJ/mol]       0.00000000 [Eh]
    Translational E         0.889 [kcal/mol]        3.718 [kJ/mol]       0.00141628 [Eh]
    Rotational E            0.889 [kcal/mol]        3.718 [kJ/mol]       0.00141628 [Eh]
    Vibrational E          16.044 [kcal/mol]       67.126 [kJ/mol]       0.02556705 [Eh]
  Correction E             17.821 [kcal/mol]       74.563 [kJ/mol]       0.02839960 [Eh]
  Total E, Electronic energy at  298.15 [K]                           -343.09285877 [Eh]

  Enthalpy, H_trans = E_trans + k_B * T
    Electronic H            0.000 [kcal/mol]        0.000 [kJ/mol]       0.00000000 [Eh]
    Translational H         1.481 [kcal/mol]        6.197 [kJ/mol]       0.00236046 [Eh]
    Rotational H            0.889 [kcal/mol]        3.718 [kJ/mol]       0.00141628 [Eh]
    Vibrational H          16.044 [kcal/mol]       67.126 [kJ/mol]       0.02556705 [Eh]
  Correction H             18.414 [kcal/mol]       77.042 [kJ/mol]       0.02934379 [Eh]
  Total H, Enthalpy at  298.15 [K]                                    -343.09191458 [Eh]

  Gibbs free energy, G = H - T * S
    Electronic G            0.000 [kcal/mol]        0.000 [kJ/mol]       0.00000000 [Eh]
    Translational G        -9.402 [kcal/mol]      -39.337 [kJ/mol]      -0.01498283 [Eh]
    Rotational G           -3.781 [kcal/mol]      -15.819 [kJ/mol]      -0.00602507 [Eh]
    Vibrational G          15.999 [kcal/mol]       66.939 [kJ/mol]       0.02549569 [Eh]
  Correction G              2.816 [kcal/mol]       11.783 [kJ/mol]       0.00448779 [Eh]
  Total G, Free enthalpy at  298.15 [K]                               -343.11677058 [Eh]

*** Psi4 exiting successfully. Buy a developer a beer!
