                               Psi4 1.3.2 release

  ==> Input File <==

--------------------------------------------------------------------------
memory 144 GB

molecule {
0 1
Si 0.0000000000 0.0000000000 0.0000000000
O 0.0000000000 0.0000000000 1.5170406700
}

set dynamic_level 1
set basis cc-pV(T+d)Z

optimize("wB97M-V")
frequencies("wB97M-V")
--------------------------------------------------------------------------

    Molecular point group: c2v
  Charge       = 0
  Multiplicity = 1
  Basis Set: CC-PV(T+D)Z
    Blend: CC-PV(T+D)Z
  Basis Set: (CC-PV(T+D)Z AUX)
    Blend: CC-PVTZ-JKFIT
  @DF-RKS Final Energy:  -364.73683854967646
    Total Energy =                       -364.7368385496764631
    Molecular point group: c2v
  Basis Set: CC-PV(T+D)Z
    Blend: CC-PV(T+D)Z
  Basis Set: (CC-PV(T+D)Z AUX)
    Blend: CC-PVTZ-JKFIT
  @DF-RKS Final Energy:  -364.73681612036614
    Total Energy =                       -364.7368161203661430
  Basis Set: CC-PV(T+D)Z
    Blend: CC-PV(T+D)Z
  Basis Set: (CC-PV(T+D)Z AUX)
    Blend: CC-PVTZ-JKFIT
  @DF-RKS Final Energy:  -364.73685950143465
    Total Energy =                       -364.7368595014345942
  Basis Set: CC-PV(T+D)Z
    Blend: CC-PV(T+D)Z
  Basis Set: (CC-PV(T+D)Z AUX)
    Blend: CC-PVTZ-JKFIT
  @DF-RKS Final Energy:  -364.73699161240393
    Total Energy =                       -364.7369916124039264
  @DF-RKS Final Energy:  -364.73698797632045
    Total Energy =                       -364.7369879763204494
  @DF-RKS Final Energy:  -364.73699368174294
    Total Energy =                       -364.7369936817430016
  @DF-RKS Final Energy:  -364.73699420160523
    Total Energy =                       -364.7369942016052846
  @DF-RKS Final Energy:  -364.73699350849978
    Total Energy =                       -364.7369935084998360
  @DF-RKS Final Energy:  -364.73699331390566
    Total Energy =                       -364.7369933139057707
  **** Optimization is complete! (in 3 steps) ****
    Final optimized geometry and variables:
  @DF-RKS Final Energy:  -364.73699420160528
    Total Energy =                       -364.7369942016052278
  @DF-RKS Final Energy:  -364.73699350849967
    Total Energy =                       -364.7369935084996655
  Basis Set: CC-PV(T+D)Z
    Blend: CC-PV(T+D)Z
  Basis Set: (CC-PV(T+D)Z AUX)
    Blend: CC-PVTZ-JKFIT
  @DF-RKS Final Energy:  -364.73699331390611
    Total Energy =                       -364.7369933139061686
  Basis Set: CC-PV(T+D)Z
    Blend: CC-PV(T+D)Z
  Basis Set: (CC-PV(T+D)Z AUX)
    Blend: CC-PVTZ-JKFIT
  @DF-RKS Final Energy:  -364.73699420160546
    Total Energy =                       -364.7369942016053983
  Multiplicity = 1
  Basis Set: CC-PV(T+D)Z
    Blend: CC-PV(T+D)Z
  Basis Set: (CC-PV(T+D)Z AUX)
    Blend: CC-PVTZ-JKFIT
  @DF-RKS Final Energy:  -364.73699350850035
    Total Energy =                       -364.7369935085002908
    Molecular point group: c2v

    Geometry (in Angstrom), charge = 0, multiplicity = 1:

       Center              X                  Y                   Z               Mass
    ------------   -----------------  -----------------  -----------------  -----------------
         SI           0.000000000000     0.000000000000    -0.547226927647    27.976926534650
         O            0.000000000000     0.000000000000     0.957162192903    15.994914619570

  Charge       = 0
  Multiplicity = 1
  Basis Set: CC-PV(T+D)Z
    Blend: CC-PV(T+D)Z
  Basis Set: (CC-PV(T+D)Z AUX)
    Blend: CC-PVTZ-JKFIT

    Orbital Energies [Eh]
    ---------------------

    Doubly Occupied:

       1A1   -66.447440     2A1   -19.312709     3A1    -5.470341
       1B1    -3.785498     1B2    -3.785498     4A1    -3.779189
       5A1    -1.064156     6A1    -0.540560     2B1    -0.432051
       2B2    -0.432051     7A1    -0.402937

  @DF-RKS Final Energy:  -364.73699331390617

   => Energetics <=

    Nuclear Repulsion Energy =             39.3966207182772337
    One-Electron Energy =                -583.4064241300883396
    Two-Electron Energy =                 201.4439769826567215
    DFT Exchange-Correlation Energy =     -22.2641512975896774
    Empirical Dispersion Energy =           0.0000000000000000
    VV10 Nonlocal Energy =                  0.0929844128379482
    Total Energy =                       -364.7369933139061686

  Dipole Moment: [D]
     X:     0.0000      Y:     0.0000      Z:    -3.1283     Total:     3.1283

  Vibration                       6
  Freq [cm^-1]                1292.6274
  Irrep                           A1
  Reduced mass [u]             18.9466
  Force const [mDyne/A]        18.6521

  ==> Thermochemistry Components <==

  Entropy, S
    Electronic S            0.000 [cal/(mol K)]        0.000 [J/(mol K)]       0.00000000 [mEh/K] (multiplicity = 1)
    Translational S        37.269 [cal/(mol K)]      155.933 [J/(mol K)]       0.05939177 [mEh/K] (mol. weight = 43.9718 [u], P = 101325.00 [Pa])
    Rotational S           13.209 [cal/(mol K)]       55.266 [J/(mol K)]       0.02104972 [mEh/K] (symmetry no. = 1)
    Vibrational S           0.028 [cal/(mol K)]        0.118 [J/(mol K)]       0.00004487 [mEh/K]
  Total S                  50.506 [cal/(mol K)]      211.317 [J/(mol K)]       0.08048636 [mEh/K]
  Correction S              0.000 [cal/(mol K)]        0.000 [J/(mol K)]       0.00000000 [mEh/K]

  Constant volume heat capacity, Cv
    Electronic Cv           0.000 [cal/(mol K)]        0.000 [J/(mol K)]       0.00000000 [mEh/K]
    Translational Cv        2.981 [cal/(mol K)]       12.472 [J/(mol K)]       0.00475022 [mEh/K]
    Rotational Cv           1.987 [cal/(mol K)]        8.314 [J/(mol K)]       0.00316681 [mEh/K]
    Vibrational Cv          0.152 [cal/(mol K)]        0.635 [J/(mol K)]       0.00024173 [mEh/K]
  Total Cv                  5.120 [cal/(mol K)]       21.421 [J/(mol K)]       0.00815876 [mEh/K]
  Correction Cv             0.000 [cal/(mol K)]        0.000 [J/(mol K)]       0.00000000 [mEh/K]

  Constant pressure heat capacity, Cp
    Electronic Cp           0.000 [cal/(mol K)]        0.000 [J/(mol K)]       0.00000000 [mEh/K]
    Translational Cp        4.968 [cal/(mol K)]       20.786 [J/(mol K)]       0.00791703 [mEh/K]
    Rotational Cp           1.987 [cal/(mol K)]        8.314 [J/(mol K)]       0.00316681 [mEh/K]
    Vibrational Cp          0.152 [cal/(mol K)]        0.635 [J/(mol K)]       0.00024173 [mEh/K]
  Total Cp                  7.107 [cal/(mol K)]       29.735 [J/(mol K)]       0.01132557 [mEh/K]
  Correction Cp             0.000 [cal/(mol K)]        0.000 [J/(mol K)]       0.00000000 [mEh/K]

  ==> Thermochemistry Energy Analysis <==

  Raw electronic energy, E0
  Total E0, Electronic energy at well bottom at 0 [K]                 -364.73699420 [Eh]

  Zero-point energy, ZPE_vib = Sum_i nu_i / 2
    Electronic ZPE          0.000 [kcal/mol]        0.000 [kJ/mol]       0.00000000 [Eh]
    Translational ZPE       0.000 [kcal/mol]        0.000 [kJ/mol]       0.00000000 [Eh]
    Rotational ZPE          0.000 [kcal/mol]        0.000 [kJ/mol]       0.00000000 [Eh]
    Vibrational ZPE         1.848 [kcal/mol]        7.732 [kJ/mol]       0.00294482 [Eh]         646.314 [cm^-1]
  Correction ZPE            1.848 [kcal/mol]        7.732 [kJ/mol]       0.00294482 [Eh]         646.314 [cm^-1]
  Total ZPE, Electronic energy at 0 [K]                               -364.73404938 [Eh]

  Thermal Energy, E (includes ZPE)
    Electronic E            0.000 [kcal/mol]        0.000 [kJ/mol]       0.00000000 [Eh]
    Translational E         0.889 [kcal/mol]        3.718 [kJ/mol]       0.00141628 [Eh]
    Rotational E            0.592 [kcal/mol]        2.479 [kJ/mol]       0.00094418 [Eh]
    Vibrational E           1.855 [kcal/mol]        7.762 [kJ/mol]       0.00295635 [Eh]
  Correction E              3.336 [kcal/mol]       13.959 [kJ/mol]       0.00531681 [Eh]
  Total E, Electronic energy at  298.15 [K]                           -364.73167739 [Eh]

  Enthalpy, H_trans = E_trans + k_B * T
    Electronic H            0.000 [kcal/mol]        0.000 [kJ/mol]       0.00000000 [Eh]
    Translational H         1.481 [kcal/mol]        6.197 [kJ/mol]       0.00236046 [Eh]
    Rotational H            0.592 [kcal/mol]        2.479 [kJ/mol]       0.00094418 [Eh]
    Vibrational H           1.855 [kcal/mol]        7.762 [kJ/mol]       0.00295635 [Eh]
  Correction H              3.929 [kcal/mol]       16.438 [kJ/mol]       0.00626100 [Eh]
  Total H, Enthalpy at  298.15 [K]                                    -364.73073320 [Eh]

  Gibbs free energy, G = H - T * S
    Electronic G            0.000 [kcal/mol]        0.000 [kJ/mol]       0.00000000 [Eh]
    Translational G        -9.631 [kcal/mol]      -40.294 [kJ/mol]      -0.01534720 [Eh]
    Rotational G           -3.346 [kcal/mol]      -13.999 [kJ/mol]      -0.00533179 [Eh]
    Vibrational G           1.847 [kcal/mol]        7.727 [kJ/mol]       0.00294297 [Eh]
  Correction G            -11.130 [kcal/mol]      -46.566 [kJ/mol]      -0.01773601 [Eh]
  Total G, Free enthalpy at  298.15 [K]                               -364.75473021 [Eh]

*** Psi4 exiting successfully. Buy a developer a beer!
