                               Psi4 1.3.2 release

  ==> Input File <==

--------------------------------------------------------------------------
memory 144 GB

molecule {
0 1
S 0.0000000000 0.0000000000 0.0000000000
O 0.0000000000 0.0000000000 1.4355085900
O 1.2508167239 0.0000000000 -0.7043737894
}

set dynamic_level 1
set basis cc-pV(T+d)Z

optimize("wB97M-V")
frequencies("wB97M-V")
--------------------------------------------------------------------------

    Molecular point group: c2v
  Charge       = 0
  Multiplicity = 1
  Basis Set: CC-PV(T+D)Z
    Blend: CC-PV(T+D)Z
  Basis Set: (CC-PV(T+D)Z AUX)
    Blend: CC-PVTZ-JKFIT
  @DF-RKS Final Energy:  -548.65297917735563
    Total Energy =                       -548.6529791773555189
    Molecular point group: c2v
  Basis Set: CC-PV(T+D)Z
    Blend: CC-PV(T+D)Z
  Basis Set: (CC-PV(T+D)Z AUX)
    Blend: CC-PVTZ-JKFIT
  @DF-RKS Final Energy:  -548.65296607916491
    Total Energy =                       -548.6529660791650258
  Basis Set: CC-PV(T+D)Z
    Blend: CC-PV(T+D)Z
  Basis Set: (CC-PV(T+D)Z AUX)
    Blend: CC-PVTZ-JKFIT
  @DF-RKS Final Energy:  -548.65299151895954
    Total Energy =                       -548.6529915189595386
  Basis Set: CC-PV(T+D)Z
    Blend: CC-PV(T+D)Z
  Basis Set: (CC-PV(T+D)Z AUX)
    Blend: CC-PVTZ-JKFIT
  @DF-RKS Final Energy:  -548.65299675596282
    Total Energy =                       -548.6529967559628176
  @DF-RKS Final Energy:  -548.65296069748945
    Total Energy =                       -548.6529606974894477
  @DF-RKS Final Energy:  -548.65314071812793
    Total Energy =                       -548.6531407181279292
  @DF-RKS Final Energy:  -548.65313490549534
    Total Energy =                       -548.6531349054953353
  @DF-RKS Final Energy:  -548.65314575212153
    Total Energy =                       -548.6531457521216453
  @DF-RKS Final Energy:  -548.65314434136860
    Total Energy =                       -548.6531443413686020
  @DF-RKS Final Energy:  -548.65313616089020
    Total Energy =                       -548.6531361608901989
  @DF-RKS Final Energy:  -548.65315775309625
    Total Energy =                       -548.6531577530963659
  @DF-RKS Final Energy:  -548.65315879839159
    Total Energy =                       -548.6531587983915870
  @DF-RKS Final Energy:  -548.65315592626905
    Total Energy =                       -548.6531559262689370
  @DF-RKS Final Energy:  -548.65315689433430
    Total Energy =                       -548.6531568943343018
  @DF-RKS Final Energy:  -548.65315766176764
    Total Energy =                       -548.6531576617677501
  @DF-RKS Final Energy:  -548.65315955921312
    Total Energy =                       -548.6531595592131225
  @DF-RKS Final Energy:  -548.65315910674929
    Total Energy =                       -548.6531591067492855
  @DF-RKS Final Energy:  -548.65315922869138
    Total Energy =                       -548.6531592286914929
  @DF-RKS Final Energy:  -548.65315908477999
    Total Energy =                       -548.6531590847798725
  @DF-RKS Final Energy:  -548.65315908581385
    Total Energy =                       -548.6531590858137406
  **** Optimization is complete! (in 4 steps) ****
    Final optimized geometry and variables:
  @DF-RKS Final Energy:  -548.65315955896290
    Total Energy =                       -548.6531595589630115
  @DF-RKS Final Energy:  -548.65315910676406
    Total Energy =                       -548.6531591067640647
  @DF-RKS Final Energy:  -548.65315922859747
    Total Energy =                       -548.6531592285974739
  @DF-RKS Final Energy:  -548.65315908502805
    Total Energy =                       -548.6531590850280509
  @DF-RKS Final Energy:  -548.65315908558432
    Total Energy =                       -548.6531590855843206
  @DF-RKS Final Energy:  -548.65315955896267
    Total Energy =                       -548.6531595589625567
  @DF-RKS Final Energy:  -548.65315910676463
    Total Energy =                       -548.6531591067645195
  @DF-RKS Final Energy:  -548.65315922859759
    Total Energy =                       -548.6531592285974739
  @DF-RKS Final Energy:  -548.65315908502760
    Total Energy =                       -548.6531590850277098
  Basis Set: CC-PV(T+D)Z
    Blend: CC-PV(T+D)Z
  Basis Set: (CC-PV(T+D)Z AUX)
    Blend: CC-PVTZ-JKFIT
  @DF-RKS Final Energy:  -548.65315908558512
    Total Energy =                       -548.6531590855851164
  Basis Set: CC-PV(T+D)Z
    Blend: CC-PV(T+D)Z
  Basis Set: (CC-PV(T+D)Z AUX)
    Blend: CC-PVTZ-JKFIT
  @DF-RKS Final Energy:  -548.65315934598789
    Total Energy =                       -548.6531593459878877
  Multiplicity = 1
  Basis Set: CC-PV(T+D)Z
    Blend: CC-PV(T+D)Z
  Basis Set: (CC-PV(T+D)Z AUX)
    Blend: CC-PVTZ-JKFIT
  @DF-RKS Final Energy:  -548.65315922329137
    Total Energy =                       -548.6531592232912544
    Molecular point group: cs

    Geometry (in Angstrom), charge = 0, multiplicity = 1:

       Center              X                  Y                   Z               Mass
    ------------   -----------------  -----------------  -----------------  -----------------
         S            0.000000000000    -0.000305693438    -0.361112985839    31.972071174400
         O            0.000000000000     1.231542831632     0.361091692317    15.994914619570
         O            0.000000000000    -1.230931784147     0.360733360198    15.994914619570

  Charge       = 0
  Multiplicity = 1
  Basis Set: CC-PV(T+D)Z
    Blend: CC-PV(T+D)Z
  Basis Set: (CC-PV(T+D)Z AUX)
    Blend: CC-PVTZ-JKFIT

    Orbital Energies [Eh]
    ---------------------

    Doubly Occupied:

       1Ap   -89.381733     2Ap   -19.388018     3Ap   -19.387834
       4Ap    -8.276964     1App   -6.187657     5Ap    -6.184914
       6Ap    -6.181417     7Ap    -1.278311     8Ap    -1.183455
       9Ap    -0.751386     2App   -0.606320    10Ap    -0.606252
      11Ap    -0.602319     3App   -0.476500    12Ap    -0.466372
      13Ap    -0.434760

  @DF-RKS Final Energy:  -548.65315856471807

   => Energetics <=

    Nuclear Repulsion Energy =            108.6645391720433196
    One-Electron Energy =                -971.5580527761385383
    Two-Electron Energy =                 346.4999008152003626
    DFT Exchange-Correlation Energy =     -32.3921187258500112
    Empirical Dispersion Energy =           0.0000000000000000
    VV10 Nonlocal Energy =                  0.1325729500268265
    Total Energy =                       -548.6531585647180691

  Dipole Moment: [D]
     X:     0.0000      Y:    -0.0061      Z:    -1.7400     Total:     1.7400

  Vibration                       7                   8                   9
  Freq [cm^-1]                 532.8347           1242.7947           1449.7593
  Irrep                           A1                  A1                  B2
  Reduced mass [u]             18.6470             17.9256             20.3309
  Force const [mDyne/A]         3.1192             16.3125             25.1767

  ==> Thermochemistry Components <==

  Entropy, S
    Electronic S            0.000 [cal/(mol K)]        0.000 [J/(mol K)]       0.00000000 [mEh/K] (multiplicity = 1)
    Translational S        38.386 [cal/(mol K)]      160.607 [J/(mol K)]       0.06117186 [mEh/K] (mol. weight = 63.9619 [u], P = 101325.00 [Pa])
    Rotational S           20.198 [cal/(mol K)]       84.506 [J/(mol K)]       0.03218679 [mEh/K] (symmetry no. = 2)
    Vibrational S           0.630 [cal/(mol K)]        2.636 [J/(mol K)]       0.00100414 [mEh/K]
  Total S                  59.214 [cal/(mol K)]      247.749 [J/(mol K)]       0.09436279 [mEh/K]
  Correction S              0.000 [cal/(mol K)]        0.000 [J/(mol K)]       0.00000000 [mEh/K]

  Constant volume heat capacity, Cv
    Electronic Cv           0.000 [cal/(mol K)]        0.000 [J/(mol K)]       0.00000000 [mEh/K]
    Translational Cv        2.981 [cal/(mol K)]       12.472 [J/(mol K)]       0.00475022 [mEh/K]
    Rotational Cv           2.981 [cal/(mol K)]       12.472 [J/(mol K)]       0.00475022 [mEh/K]
    Vibrational Cv          1.445 [cal/(mol K)]        6.046 [J/(mol K)]       0.00230293 [mEh/K]
  Total Cv                  7.407 [cal/(mol K)]       30.990 [J/(mol K)]       0.01180336 [mEh/K]
  Correction Cv             0.000 [cal/(mol K)]        0.000 [J/(mol K)]       0.00000000 [mEh/K]

  Constant pressure heat capacity, Cp
    Electronic Cp           0.000 [cal/(mol K)]        0.000 [J/(mol K)]       0.00000000 [mEh/K]
    Translational Cp        4.968 [cal/(mol K)]       20.786 [J/(mol K)]       0.00791703 [mEh/K]
    Rotational Cp           2.981 [cal/(mol K)]       12.472 [J/(mol K)]       0.00475022 [mEh/K]
    Vibrational Cp          1.445 [cal/(mol K)]        6.046 [J/(mol K)]       0.00230293 [mEh/K]
  Total Cp                  9.394 [cal/(mol K)]       39.304 [J/(mol K)]       0.01497017 [mEh/K]
  Correction Cp             0.000 [cal/(mol K)]        0.000 [J/(mol K)]       0.00000000 [mEh/K]

  ==> Thermochemistry Energy Analysis <==

  Raw electronic energy, E0
  Total E0, Electronic energy at well bottom at 0 [K]                 -548.65315956 [Eh]

  Zero-point energy, ZPE_vib = Sum_i nu_i / 2
    Electronic ZPE          0.000 [kcal/mol]        0.000 [kJ/mol]       0.00000000 [Eh]
    Translational ZPE       0.000 [kcal/mol]        0.000 [kJ/mol]       0.00000000 [Eh]
    Rotational ZPE          0.000 [kcal/mol]        0.000 [kJ/mol]       0.00000000 [Eh]
    Vibrational ZPE         4.611 [kcal/mol]       19.292 [kJ/mol]       0.00734798 [Eh]        1612.694 [cm^-1]
  Correction ZPE            4.611 [kcal/mol]       19.292 [kJ/mol]       0.00734798 [Eh]        1612.694 [cm^-1]
  Total ZPE, Electronic energy at 0 [K]                               -548.64581158 [Eh]

  Thermal Energy, E (includes ZPE)
    Electronic E            0.000 [kcal/mol]        0.000 [kJ/mol]       0.00000000 [Eh]
    Translational E         0.889 [kcal/mol]        3.718 [kJ/mol]       0.00141628 [Eh]
    Rotational E            0.889 [kcal/mol]        3.718 [kJ/mol]       0.00141628 [Eh]
    Vibrational E           4.750 [kcal/mol]       19.873 [kJ/mol]       0.00756907 [Eh]
  Correction E              6.527 [kcal/mol]       27.309 [kJ/mol]       0.01040162 [Eh]
  Total E, Electronic energy at  298.15 [K]                           -548.64275794 [Eh]

  Enthalpy, H_trans = E_trans + k_B * T
    Electronic H            0.000 [kcal/mol]        0.000 [kJ/mol]       0.00000000 [Eh]
    Translational H         1.481 [kcal/mol]        6.197 [kJ/mol]       0.00236046 [Eh]
    Rotational H            0.889 [kcal/mol]        3.718 [kJ/mol]       0.00141628 [Eh]
    Vibrational H           4.750 [kcal/mol]       19.873 [kJ/mol]       0.00756907 [Eh]
  Correction H              7.120 [kcal/mol]       29.788 [kJ/mol]       0.01134581 [Eh]
  Total H, Enthalpy at  298.15 [K]                                    -548.64181375 [Eh]

  Gibbs free energy, G = H - T * S
    Electronic G            0.000 [kcal/mol]        0.000 [kJ/mol]       0.00000000 [Eh]
    Translational G        -9.964 [kcal/mol]      -41.687 [kJ/mol]      -0.01587793 [Eh]
    Rotational G           -5.133 [kcal/mol]      -21.477 [kJ/mol]      -0.00818022 [Eh]
    Vibrational G           4.562 [kcal/mol]       19.087 [kJ/mol]       0.00726968 [Eh]
  Correction G            -10.535 [kcal/mol]      -44.078 [kJ/mol]      -0.01678846 [Eh]
  Total G, Free enthalpy at  298.15 [K]                               -548.66994802 [Eh]

*** Psi4 exiting successfully. Buy a developer a beer!
