                               Psi4 1.3.2 release

  ==> Input File <==

--------------------------------------------------------------------------
memory 144 GB

molecule {
0 1
C -0.0479167327 0.6682939561 0.0000000000
H -1.0907101856 0.9776732069 0.0000000000
H 0.4344161461 1.0815239129 0.8898543791
H 0.4344161461 1.0815239129 -0.8898543791
O -0.0410920225 -0.7509554452 0.0000000000
H 0.8712936485 -1.0420305436 0.0000000000
}

set dynamic_level 1
set basis cc-pV(T+d)Z

optimize("wB97M-V")
frequencies("wB97M-V")
--------------------------------------------------------------------------

    Molecular point group: cs
  Charge       = 0
  Multiplicity = 1
  Basis Set: CC-PV(T+D)Z
    Blend: CC-PV(T+D)Z
  Basis Set: (CC-PV(T+D)Z AUX)
    Blend: CC-PVTZ-JKFIT
  @DF-RKS Final Energy:  -115.71075138768644
    Total Energy =                       -115.7107513876864431
    Molecular point group: cs
  Basis Set: CC-PV(T+D)Z
    Blend: CC-PV(T+D)Z
  Basis Set: (CC-PV(T+D)Z AUX)
    Blend: CC-PVTZ-JKFIT
  @DF-RKS Final Energy:  -115.71074977199120
    Total Energy =                       -115.7107497719912175
  Basis Set: CC-PV(T+D)Z
    Blend: CC-PV(T+D)Z
  Basis Set: (CC-PV(T+D)Z AUX)
    Blend: CC-PVTZ-JKFIT
  @DF-RKS Final Energy:  -115.71074912911386
    Total Energy =                       -115.7107491291138786
  Basis Set: CC-PV(T+D)Z
    Blend: CC-PV(T+D)Z
  Basis Set: (CC-PV(T+D)Z AUX)
    Blend: CC-PVTZ-JKFIT
  @DF-RKS Final Energy:  -115.71075471690303
    Total Energy =                       -115.7107547169030255
  @DF-RKS Final Energy:  -115.71074646473934
    Total Energy =                       -115.7107464647393584
  @DF-RKS Final Energy:  -115.71074509996727
    Total Energy =                       -115.7107450999672693
  @DF-RKS Final Energy:  -115.71075029848161
    Total Energy =                       -115.7107502984816279
  @DF-RKS Final Energy:  -115.71074865815952
    Total Energy =                       -115.7107486581595026
  @DF-RKS Final Energy:  -115.71075183376024
    Total Energy =                       -115.7107518337602414
  @DF-RKS Final Energy:  -115.71075008470524
    Total Energy =                       -115.7107500847052250
  @DF-RKS Final Energy:  -115.71075031027019
    Total Energy =                       -115.7107503102701855
  @DF-RKS Final Energy:  -115.71074721154231
    Total Energy =                       -115.7107472115422979
  @DF-RKS Final Energy:  -115.71075345857726
    Total Energy =                       -115.7107534585772584
  @DF-RKS Final Energy:  -115.71074975804100
    Total Energy =                       -115.7107497580410040
  @DF-RKS Final Energy:  -115.71074660175655
    Total Energy =                       -115.7107466017565542
  @DF-RKS Final Energy:  -115.71075217913747
    Total Energy =                       -115.7107521791374580
  @DF-RKS Final Energy:  -115.71073630194515
    Total Energy =                       -115.7107363019451611
  @DF-RKS Final Energy:  -115.71076220630246
    Total Energy =                       -115.7107622063024621
  @DF-RKS Final Energy:  -115.71076036533418
    Total Energy =                       -115.7107603653341812
  @DF-RKS Final Energy:  -115.71076017845385
    Total Energy =                       -115.7107601784538531
  **** Optimization is complete! (in 3 steps) ****
    Final optimized geometry and variables:
  @DF-RKS Final Energy:  -115.71075632211364
    Total Energy =                       -115.7107563221136388
  @DF-RKS Final Energy:  -115.71075437223389
    Total Energy =                       -115.7107543722338789
  @DF-RKS Final Energy:  -115.71075416288181
    Total Energy =                       -115.7107541628818268
  @DF-RKS Final Energy:  -115.71075218558821
    Total Energy =                       -115.7107521855882197
  @DF-RKS Final Energy:  -115.71076158482472
    Total Energy =                       -115.7107615848247235
  @DF-RKS Final Energy:  -115.71076210929036
    Total Energy =                       -115.7107621092903571
  @DF-RKS Final Energy:  -115.71076245667486
    Total Energy =                       -115.7107624566748569
  @DF-RKS Final Energy:  -115.71076143233000
    Total Energy =                       -115.7107614323300169
  @DF-RKS Final Energy:  -115.71075893546157
    Total Energy =                       -115.7107589354615698
  @DF-RKS Final Energy:  -115.71075893549781
    Total Energy =                       -115.7107589354978074
  @DF-RKS Final Energy:  -115.71076239411461
    Total Energy =                       -115.7107623941146102
  @DF-RKS Final Energy:  -115.71076239412660
    Total Energy =                       -115.7107623941266041
  @DF-RKS Final Energy:  -115.71076298331302
    Total Energy =                       -115.7107629833130034
  @DF-RKS Final Energy:  -115.71076298337951
    Total Energy =                       -115.7107629833795102
  @DF-RKS Final Energy:  -115.71076219276276
    Total Energy =                       -115.7107621927627576
  @DF-RKS Final Energy:  -115.71076219272599
    Total Energy =                       -115.7107621927259942
  Basis Set: CC-PV(T+D)Z
    Blend: CC-PV(T+D)Z
  Basis Set: (CC-PV(T+D)Z AUX)
    Blend: CC-PVTZ-JKFIT
  @DF-RKS Final Energy:  -115.71076137579969
    Total Energy =                       -115.7107613757997058
  Basis Set: CC-PV(T+D)Z
    Blend: CC-PV(T+D)Z
  Basis Set: (CC-PV(T+D)Z AUX)
    Blend: CC-PVTZ-JKFIT
  @DF-RKS Final Energy:  -115.71076137577801
    Total Energy =                       -115.7107613757780058
  Multiplicity = 1
  Basis Set: CC-PV(T+D)Z
    Blend: CC-PV(T+D)Z
  Basis Set: (CC-PV(T+D)Z AUX)
    Blend: CC-PVTZ-JKFIT
  @DF-RKS Final Energy:  -115.71075819076476
    Total Energy =                       -115.7107581907647642
    Molecular point group: c1

    Geometry (in Angstrom), charge = 0, multiplicity = 1:

       Center              X                  Y                   Z               Mass
    ------------   -----------------  -----------------  -----------------  -----------------
         C           -0.029818436723     0.725321265671    -0.000000000000    12.000000000000
         H           -1.071216710237     1.037813112920    -0.000000000000     1.007825032230
         H            0.449783539935     1.141430547943     0.887542367346     1.007825032230
         H            0.452055583197     1.145244018938    -0.889573854259     1.007825032230
         O           -0.023054344247    -0.691579184229     0.000200849053    15.994914619570
         H            0.890309777997    -0.984900210782    -0.001156133306     1.007825032230

  Charge       = 0
  Multiplicity = 1
  Basis Set: CC-PV(T+D)Z
    Blend: CC-PV(T+D)Z
  Basis Set: (CC-PV(T+D)Z AUX)
    Blend: CC-PVTZ-JKFIT

    Orbital Energies [Eh]
    ---------------------

    Doubly Occupied:

       1A    -19.325522     2A    -10.379517     3A     -1.143605
       4A     -0.799253     5A     -0.612941     6A     -0.544649
       7A     -0.527894     8A     -0.437826     9A     -0.377619

  @DF-RKS Final Energy:  -115.71075819073349

   => Energetics <=

    Nuclear Repulsion Energy =             40.3770914581141795
    One-Electron Energy =                -237.1006730709350165
    Two-Electron Energy =                  91.8479942939865310
    DFT Exchange-Correlation Energy =     -10.9087949044902572
    Empirical Dispersion Energy =           0.0000000000000000
    VV10 Nonlocal Energy =                  0.0736240325911040
    Total Energy =                       -115.7107581907334719

  Dipole Moment: [D]
     X:     1.3460      Y:     0.8904      Z:     0.0009     Total:     1.6139

  Vibration                       7                   8                   9
  Freq [cm^-1]                 298.0693           1064.0445           1096.3064
  Irrep                          App                  Ap                  Ap
  Reduced mass [u]              1.0697              1.4544              2.7031
  Force const [mDyne/A]         0.0560              0.9702              1.9142

  Vibration                       10                  11                  12
  Freq [cm^-1]                1170.1136           1377.4797           1477.3009
  Irrep                          App                  Ap                  Ap
  Reduced mass [u]              1.2730              1.2845              1.1432
  Force const [mDyne/A]         1.0269              1.4360              1.4700

  Vibration                       13                  14                  15
  Freq [cm^-1]                1492.5052           1507.6134           3013.9207
  Irrep                          App                  Ap                  Ap
  Reduced mass [u]              1.0457              1.0447              1.0363
  Force const [mDyne/A]         1.3724              1.3991              5.5462

  Vibration                       16                  17                  18
  Freq [cm^-1]                3061.8643           3129.6404           3865.7434
  Irrep                          App                  Ap                  Ap
  Reduced mass [u]              1.1049              1.0973              1.0665
  Force const [mDyne/A]         6.1030              6.3326              9.3903

  ==> Thermochemistry Components <==

  Entropy, S
    Electronic S            0.000 [cal/(mol K)]        0.000 [J/(mol K)]       0.00000000 [mEh/K] (multiplicity = 1)
    Translational S        36.324 [cal/(mol K)]      151.980 [J/(mol K)]       0.05788598 [mEh/K] (mol. weight = 32.0262 [u], P = 101325.00 [Pa])
    Rotational S           18.973 [cal/(mol K)]       79.383 [J/(mol K)]       0.03023540 [mEh/K] (symmetry no. = 1)
    Vibrational S           1.666 [cal/(mol K)]        6.972 [J/(mol K)]       0.00265532 [mEh/K]
  Total S                  56.963 [cal/(mol K)]      238.334 [J/(mol K)]       0.09077670 [mEh/K]
  Correction S              0.000 [cal/(mol K)]        0.000 [J/(mol K)]       0.00000000 [mEh/K]

  Constant volume heat capacity, Cv
    Electronic Cv           0.000 [cal/(mol K)]        0.000 [J/(mol K)]       0.00000000 [mEh/K]
    Translational Cv        2.981 [cal/(mol K)]       12.472 [J/(mol K)]       0.00475022 [mEh/K]
    Rotational Cv           2.981 [cal/(mol K)]       12.472 [J/(mol K)]       0.00475022 [mEh/K]
    Vibrational Cv          2.844 [cal/(mol K)]       11.897 [J/(mol K)]       0.00453141 [mEh/K]
  Total Cv                  8.805 [cal/(mol K)]       36.841 [J/(mol K)]       0.01403185 [mEh/K]
  Correction Cv             0.000 [cal/(mol K)]        0.000 [J/(mol K)]       0.00000000 [mEh/K]

  Constant pressure heat capacity, Cp
    Electronic Cp           0.000 [cal/(mol K)]        0.000 [J/(mol K)]       0.00000000 [mEh/K]
    Translational Cp        4.968 [cal/(mol K)]       20.786 [J/(mol K)]       0.00791703 [mEh/K]
    Rotational Cp           2.981 [cal/(mol K)]       12.472 [J/(mol K)]       0.00475022 [mEh/K]
    Vibrational Cp          2.844 [cal/(mol K)]       11.897 [J/(mol K)]       0.00453141 [mEh/K]
  Total Cp                 10.792 [cal/(mol K)]       45.155 [J/(mol K)]       0.01719866 [mEh/K]
  Correction Cp             0.000 [cal/(mol K)]        0.000 [J/(mol K)]       0.00000000 [mEh/K]

  ==> Thermochemistry Energy Analysis <==

  Raw electronic energy, E0
  Total E0, Electronic energy at well bottom at 0 [K]                 -115.71076344 [Eh]

  Zero-point energy, ZPE_vib = Sum_i nu_i / 2
    Electronic ZPE          0.000 [kcal/mol]        0.000 [kJ/mol]       0.00000000 [Eh]
    Translational ZPE       0.000 [kcal/mol]        0.000 [kJ/mol]       0.00000000 [Eh]
    Rotational ZPE          0.000 [kcal/mol]        0.000 [kJ/mol]       0.00000000 [Eh]
    Vibrational ZPE        32.243 [kcal/mol]      134.906 [kJ/mol]       0.05138316 [Eh]       11277.301 [cm^-1]
  Correction ZPE           32.243 [kcal/mol]      134.906 [kJ/mol]       0.05138316 [Eh]       11277.301 [cm^-1]
  Total ZPE, Electronic energy at 0 [K]                               -115.65938028 [Eh]

  Thermal Energy, E (includes ZPE)
    Electronic E            0.000 [kcal/mol]        0.000 [kJ/mol]       0.00000000 [Eh]
    Translational E         0.889 [kcal/mol]        3.718 [kJ/mol]       0.00141628 [Eh]
    Rotational E            0.889 [kcal/mol]        3.718 [kJ/mol]       0.00141628 [Eh]
    Vibrational E          32.569 [kcal/mol]      136.269 [kJ/mol]       0.05190204 [Eh]
  Correction E             34.346 [kcal/mol]      143.706 [kJ/mol]       0.05473459 [Eh]
  Total E, Electronic energy at  298.15 [K]                           -115.65602885 [Eh]

  Enthalpy, H_trans = E_trans + k_B * T
    Electronic H            0.000 [kcal/mol]        0.000 [kJ/mol]       0.00000000 [Eh]
    Translational H         1.481 [kcal/mol]        6.197 [kJ/mol]       0.00236046 [Eh]
    Rotational H            0.889 [kcal/mol]        3.718 [kJ/mol]       0.00141628 [Eh]
    Vibrational H          32.569 [kcal/mol]      136.269 [kJ/mol]       0.05190204 [Eh]
  Correction H             34.939 [kcal/mol]      146.185 [kJ/mol]       0.05567878 [Eh]
  Total H, Enthalpy at  298.15 [K]                                    -115.65508467 [Eh]

  Gibbs free energy, G = H - T * S
    Electronic G            0.000 [kcal/mol]        0.000 [kJ/mol]       0.00000000 [Eh]
    Translational G        -9.349 [kcal/mol]      -39.115 [kJ/mol]      -0.01489824 [Eh]
    Rotational G           -4.768 [kcal/mol]      -19.950 [kJ/mol]      -0.00759841 [Eh]
    Vibrational G          32.072 [kcal/mol]      134.190 [kJ/mol]       0.05111035 [Eh]
  Correction G             17.955 [kcal/mol]       75.125 [kJ/mol]       0.02861370 [Eh]
  Total G, Free enthalpy at  298.15 [K]                               -115.68214974 [Eh]

*** Psi4 exiting successfully. Buy a developer a beer!
