                               Psi4 1.3.2 release

  ==> Input File <==

--------------------------------------------------------------------------
memory 144 GB

molecule {
0 3
S 0.0000000000 0.0000000000 0.0000000000
S 0.0000000000 0.0000000000 1.8968845900
}

set reference uks
set dynamic_level 1
set basis cc-pV(T+d)Z

optimize("wB97M-V")
frequencies("wB97M-V")
--------------------------------------------------------------------------

    Molecular point group: d2h
  Charge       = 0
  Multiplicity = 3
  Basis Set: CC-PV(T+D)Z
    Blend: CC-PV(T+D)Z
  Basis Set: (CC-PV(T+D)Z AUX)
    Blend: CC-PVTZ-JKFIT
  @DF-UKS Final Energy:  -796.36320095159840
    Total Energy =                       -796.3632009515985146
    Molecular point group: d2h
  Basis Set: CC-PV(T+D)Z
    Blend: CC-PV(T+D)Z
  Basis Set: (CC-PV(T+D)Z AUX)
    Blend: CC-PVTZ-JKFIT
  @DF-UKS Final Energy:  -796.36319014615981
    Total Energy =                       -796.3631901461596954
  Basis Set: CC-PV(T+D)Z
    Blend: CC-PV(T+D)Z
  Basis Set: (CC-PV(T+D)Z AUX)
    Blend: CC-PVTZ-JKFIT
  @DF-UKS Final Energy:  -796.36321123885307
    Total Energy =                       -796.3632112388531823
  Basis Set: CC-PV(T+D)Z
    Blend: CC-PV(T+D)Z
  Basis Set: (CC-PV(T+D)Z AUX)
    Blend: CC-PVTZ-JKFIT
  @DF-UKS Final Energy:  -796.36329563067170
    Total Energy =                       -796.3632956306715869
  @DF-UKS Final Energy:  -796.36329199635964
    Total Energy =                       -796.3632919963597487
  @DF-UKS Final Energy:  -796.36329872392093
    Total Energy =                       -796.3632987239209342
  @DF-UKS Final Energy:  -796.36330601040254
    Total Energy =                       -796.3633060104023116
  @DF-UKS Final Energy:  -796.36330584171674
    Total Energy =                       -796.3633058417168513
  @DF-UKS Final Energy:  -796.36330562659555
    Total Energy =                       -796.3633056265954338
  **** Optimization is complete! (in 3 steps) ****
    Final optimized geometry and variables:
  @DF-UKS Final Energy:  -796.36330601040208
    Total Energy =                       -796.3633060104021979
  @DF-UKS Final Energy:  -796.36330584171799
    Total Energy =                       -796.3633058417178745
  Basis Set: CC-PV(T+D)Z
    Blend: CC-PV(T+D)Z
  Basis Set: (CC-PV(T+D)Z AUX)
    Blend: CC-PVTZ-JKFIT
  @DF-UKS Final Energy:  -796.36330562659532
    Total Energy =                       -796.3633056265952064
  Basis Set: CC-PV(T+D)Z
    Blend: CC-PV(T+D)Z
  Basis Set: (CC-PV(T+D)Z AUX)
    Blend: CC-PVTZ-JKFIT
  @DF-UKS Final Energy:  -796.36330601040208
    Total Energy =                       -796.3633060104021979
  Multiplicity = 3
  Basis Set: CC-PV(T+D)Z
    Blend: CC-PV(T+D)Z
  Basis Set: (CC-PV(T+D)Z AUX)
    Blend: CC-PVTZ-JKFIT
  @DF-UKS Final Energy:  -796.36330584171776
    Total Energy =                       -796.3633058417177608
    Molecular point group: d2h

    Geometry (in Angstrom), charge = 0, multiplicity = 3:

       Center              X                  Y                   Z               Mass
    ------------   -----------------  -----------------  -----------------  -----------------
         S            0.000000000000     0.000000000000    -0.941522410376    31.972071174400
         S            0.000000000000     0.000000000000     0.941522410376    31.972071174400

  Charge       = 0
  Multiplicity = 3
  Basis Set: CC-PV(T+D)Z
    Blend: CC-PV(T+D)Z
  Basis Set: (CC-PV(T+D)Z AUX)
    Blend: CC-PVTZ-JKFIT

    Orbital Energies [Eh]
    ---------------------

    Alpha Occupied:

       1B1u  -89.255475     1Ag   -89.255472     2Ag    -8.167443
       2B1u   -8.167269     1B2u   -6.076588     1B3u   -6.076588
       1B3g   -6.076541     1B2g   -6.076541     3Ag    -6.074886
       3B1u   -6.074087     4Ag    -0.960282     4B1u   -0.742394
       5Ag    -0.493668     2B3u   -0.477858     2B2u   -0.477858
       2B2g   -0.329380     2B3g   -0.329380

    Alpha Virtual:

       5B1u    0.077783     6Ag     0.252354     3B2u    0.293713
       3B3u    0.293713     6B1u    0.311284     7Ag     0.344847
       1B1g    0.344848     8Ag     0.364318     4B2u    0.372686
       4B3u    0.372686     3B3g    0.398261     3B2g    0.398261
       7B1u    0.477454     1Au     0.477455     8B1u    0.627321
       9Ag     0.676045     4B3g    0.700743     4B2g    0.700743
       9B1u    0.988738    10Ag     1.397915     5B2u    1.415682
       5B3u    1.415682     2B1g    1.442698    11Ag     1.442729
       2Au     1.510157    10B1u    1.510187    12Ag     1.530210
       3B1g    1.530221    11B1u    1.596812     5B3g    1.605404
       5B2g    1.605404     6B2u    1.644355     6B3u    1.644355
       6B3g    1.743199     6B2g    1.743199     7B2u    1.752295
       7B3u    1.752295    13Ag     1.888739     8B2u    1.952199
       8B3u    1.952199     7B3g    1.969802     7B2g    1.969802
      12B1u    1.996342     3Au     1.996347    13B1u    2.055900
       8B3g    2.596273     8B2g    2.596273    14Ag     2.622869
      14B1u    2.846738    15Ag     3.420567    15B1u    4.639265
       4B1g    6.733540    16Ag     6.733585     9B2u    6.764688
       9B3u    6.764688     4Au     6.773006    16B1u    6.773052
      17Ag     6.818753     9B3g    6.849749     9B2g    6.849749
      17B1u    7.283510

    Beta Occupied:

       1B1u  -89.249254     1Ag   -89.249253     2Ag    -8.161256
       2B1u   -8.161010     3Ag    -6.071030     3B1u   -6.070230
       1B2u   -6.063199     1B3u   -6.063199     1B3g   -6.063136
       1B2g   -6.063136     4Ag    -0.935070     4B1u   -0.686572
       5Ag    -0.467796     2B3u   -0.422340     2B2u   -0.422340

    Beta Virtual:

       2B3g   -0.056417     2B2g   -0.056417     5B1u    0.093534
       6Ag     0.258474     3B2u    0.309023     3B3u    0.309023
       6B1u    0.323753     7Ag     0.374017     1B1g    0.374019
       8Ag     0.375470     4B2u    0.405633     4B3u    0.405633
       3B3g    0.409067     3B2g    0.409067     7B1u    0.525664
       1Au     0.525665     8B1u    0.650952     9Ag     0.700553
       4B3g    0.727652     4B2g    0.727652     9B1u    1.000418
      10Ag     1.415875     5B2u    1.436024     5B3u    1.436024
       2B1g    1.490347    11Ag     1.490362     2Au     1.558294
      10B1u    1.558306    12Ag     1.565275     3B1g    1.565283
      11B1u    1.615107     5B3g    1.629896     5B2g    1.629896
       6B2u    1.696261     6B3u    1.696261     7B2u    1.780084
       7B3u    1.780084     6B3g    1.798501     6B2g    1.798501
      13Ag     1.905142     8B2u    2.009480     8B3u    2.009480
       7B3g    2.025021     7B2g    2.025021     3Au     2.035002
      12B1u    2.035004    13B1u    2.080370     8B3g    2.627161
       8B2g    2.627161    14Ag     2.638415    14B1u    2.868185
      15Ag     3.454829    15B1u    4.661047     4B1g    6.745477
      16Ag     6.745502     9B2u    6.770223     9B3u    6.770223
       4Au     6.785898    16B1u    6.785924    17Ag     6.824037
       9B3g    6.855865     9B2g    6.855865    17B1u    7.288899

    Final Occupation by Irrep:
             Ag   B1g   B2g   B3g    Au   B1u   B2u   B3u
    DOCC [     5,    0,    1,    1,    0,    4,    2,    2 ]
    SOCC [     0,    0,    1,    1,    0,    0,    0,    0 ]

  @DF-UKS Final Energy:  -796.36330562659521

   => Energetics <=

    Nuclear Repulsion Energy =             71.9416577017041305
    One-Electron Energy =               -1242.5767062366280697
    Two-Electron Energy =                 413.7182246179014555
    DFT Exchange-Correlation Energy =     -39.5800620584315936
    Empirical Dispersion Energy =           0.0000000000000000
    VV10 Nonlocal Energy =                  0.1335803488589680
    Total Energy =                       -796.3633056265952064

  UHF NO Occupations:
  HONO-2 :    2B2u 1.9981576
  HONO-1 :    2B2g 1.0000000
  HONO-0 :    2B3g 1.0000000
  LUNO+0 :    3B3u 0.0018424
  LUNO+1 :    3B2u 0.0018424
  LUNO+2 :    5B1u 0.0002575
  LUNO+3 :    6 Ag 0.0001616

Computation Completed

Properties will be evaluated at   0.000000,   0.000000,   0.000000 [a0]

Properties computed using the SCF density matrix

  Nuclear Dipole Moment: [e a0]
     X:     0.0000      Y:     0.0000      Z:     0.0000

  Electronic Dipole Moment: [e a0]
     X:     0.0000      Y:     0.0000      Z:     0.0000

  Dipole Moment: [e a0]
     X:     0.0000      Y:     0.0000      Z:     0.0000     Total:     0.0000

  Dipole Moment: [D]
     X:     0.0000      Y:     0.0000      Z:     0.0000     Total:     0.0000

*** tstop() called on bp1-compute00116.data.bp.acrc.priv at Tue Apr 27 17:49:52 2021
Module time:
	user time   =     145.27 seconds =       2.42 minutes
	system time =       5.69 seconds =       0.09 minutes
	total time  =          6 seconds =       0.10 minutes
Total time:
	user time   =    1776.85 seconds =      29.61 minutes
	system time =      74.84 seconds =       1.25 minutes
	total time  =         78 seconds =       1.30 minutes

         ----------------------------------------------------------
                                   FINDIF
                     R. A. King and Jonathon Misiewicz
         ---------------------------------------------------------

  Computing second-derivative from energies using projected,
  symmetry-adapted, cartesian coordinates.

  3 energies passed in, including the reference geometry.
    Using 3-point formula.
    Energy without displacement: -796.3633060104
    Check energies below for precision!
    0: -1 :      -796.3633058417
    0: 1  :      -796.3633056266

-------------------------------------------------------------

  ==> Harmonic Vibrational Analysis <==

  non-mass-weighted Hessian:       Symmetric? True   Hermitian? True   Lin Dep Dim?  5 (0)
  projection of translations (True) and rotations (True) removed 5 degrees of freedom (5)
  total projector:                 Symmetric? True   Hermitian? True   Lin Dep Dim?  5 (5)
  mass-weighted Hessian:           Symmetric? True   Hermitian? True   Lin Dep Dim?  5 (0)
  pre-proj  low-frequency mode:    0.0000  [cm^-1]
  pre-proj  low-frequency mode:    0.0000  [cm^-1]
  pre-proj  low-frequency mode:    0.0000  [cm^-1]
  pre-proj  low-frequency mode:    0.0000  [cm^-1]
  pre-proj  low-frequency mode:    0.0000  [cm^-1]
  pre-proj  all modes:['0.0000' '0.0000' '0.0000' '0.0000' '0.0000' '764.1823']
  projected mass-weighted Hessian: Symmetric? True   Hermitian? True   Lin Dep Dim?  5 (5)
  post-proj low-frequency mode:    0.0000i [cm^-1] (TR)
  post-proj low-frequency mode:    0.0000  [cm^-1] (TR)
  post-proj low-frequency mode:    0.0000  [cm^-1] (TR)
  post-proj low-frequency mode:    0.0000  [cm^-1] (TR)
  post-proj low-frequency mode:    0.0000  [cm^-1] (TR)
  post-proj  all modes:['0.0000i' '0.0000' '0.0000' '0.0000' '0.0000' '764.1823']

  Vibration                       6
  Freq [cm^-1]                 764.1823
  Irrep                           Ag
  Reduced mass [u]             31.9721
  Force const [mDyne/A]        11.0006
  Turning point v=0 [a0]        0.0702
  RMS dev v=0 [a0 u^1/2]        0.2807
  Char temp [K]               1099.4881
  ----------------------------------------------------------------------------------
      1   S                0.00  0.00  0.71
      2   S                0.00  0.00 -0.71

  ==> Thermochemistry Components <==

  Entropy, S
    Electronic S            2.183 [cal/(mol K)]        9.134 [J/(mol K)]       0.00347910 [mEh/K] (multiplicity = 3)
    Translational S        38.385 [cal/(mol K)]      160.603 [J/(mol K)]       0.06117054 [mEh/K] (mol. weight = 63.9441 [u], P = 101325.00 [Pa])
    Rotational S           13.620 [cal/(mol K)]       56.988 [J/(mol K)]       0.02170548 [mEh/K] (symmetry no. = 2)
    Vibrational S           0.239 [cal/(mol K)]        0.998 [J/(mol K)]       0.00038008 [mEh/K]
  Total S                  54.427 [cal/(mol K)]      227.723 [J/(mol K)]       0.08673519 [mEh/K]
  Correction S              0.000 [cal/(mol K)]        0.000 [J/(mol K)]       0.00000000 [mEh/K]

  Constant volume heat capacity, Cv
    Electronic Cv           0.000 [cal/(mol K)]        0.000 [J/(mol K)]       0.00000000 [mEh/K]
    Translational Cv        2.981 [cal/(mol K)]       12.472 [J/(mol K)]       0.00475022 [mEh/K]
    Rotational Cv           1.987 [cal/(mol K)]        8.314 [J/(mol K)]       0.00316681 [mEh/K]
    Vibrational Cv          0.712 [cal/(mol K)]        2.977 [J/(mol K)]       0.00113397 [mEh/K]
  Total Cv                  5.680 [cal/(mol K)]       23.763 [J/(mol K)]       0.00905100 [mEh/K]
  Correction Cv             0.000 [cal/(mol K)]        0.000 [J/(mol K)]       0.00000000 [mEh/K]

  Constant pressure heat capacity, Cp
    Electronic Cp           0.000 [cal/(mol K)]        0.000 [J/(mol K)]       0.00000000 [mEh/K]
    Translational Cp        4.968 [cal/(mol K)]       20.786 [J/(mol K)]       0.00791703 [mEh/K]
    Rotational Cp           1.987 [cal/(mol K)]        8.314 [J/(mol K)]       0.00316681 [mEh/K]
    Vibrational Cp          0.712 [cal/(mol K)]        2.977 [J/(mol K)]       0.00113397 [mEh/K]
  Total Cp                  7.667 [cal/(mol K)]       32.078 [J/(mol K)]       0.01221781 [mEh/K]
  Correction Cp             0.000 [cal/(mol K)]        0.000 [J/(mol K)]       0.00000000 [mEh/K]

  ==> Thermochemistry Energy Analysis <==

  Raw electronic energy, E0
  Total E0, Electronic energy at well bottom at 0 [K]                 -796.36330601 [Eh]

  Zero-point energy, ZPE_vib = Sum_i nu_i / 2
    Electronic ZPE          0.000 [kcal/mol]        0.000 [kJ/mol]       0.00000000 [Eh]
    Translational ZPE       0.000 [kcal/mol]        0.000 [kJ/mol]       0.00000000 [Eh]
    Rotational ZPE          0.000 [kcal/mol]        0.000 [kJ/mol]       0.00000000 [Eh]
    Vibrational ZPE         1.092 [kcal/mol]        4.571 [kJ/mol]       0.00174094 [Eh]         382.091 [cm^-1]
  Correction ZPE            1.092 [kcal/mol]        4.571 [kJ/mol]       0.00174094 [Eh]         382.091 [cm^-1]
  Total ZPE, Electronic energy at 0 [K]                               -796.36156508 [Eh]

  Thermal Energy, E (includes ZPE)
    Electronic E            0.000 [kcal/mol]        0.000 [kJ/mol]       0.00000000 [Eh]
    Translational E         0.889 [kcal/mol]        3.718 [kJ/mol]       0.00141628 [Eh]
    Rotational E            0.592 [kcal/mol]        2.479 [kJ/mol]       0.00094418 [Eh]
    Vibrational E           1.149 [kcal/mol]        4.806 [kJ/mol]       0.00183032 [Eh]
  Correction E              2.630 [kcal/mol]       11.003 [kJ/mol]       0.00419078 [Eh]
  Total E, Electronic energy at  298.15 [K]                           -796.35911523 [Eh]

  Enthalpy, H_trans = E_trans + k_B * T
    Electronic H            0.000 [kcal/mol]        0.000 [kJ/mol]       0.00000000 [Eh]
    Translational H         1.481 [kcal/mol]        6.197 [kJ/mol]       0.00236046 [Eh]
    Rotational H            0.592 [kcal/mol]        2.479 [kJ/mol]       0.00094418 [Eh]
    Vibrational H           1.149 [kcal/mol]        4.806 [kJ/mol]       0.00183032 [Eh]
  Correction H              3.222 [kcal/mol]       13.482 [kJ/mol]       0.00513497 [Eh]
  Total H, Enthalpy at  298.15 [K]                                    -796.35817104 [Eh]

  Gibbs free energy, G = H - T * S
    Electronic G           -0.651 [kcal/mol]       -2.723 [kJ/mol]      -0.00103729 [Eh]
    Translational G        -9.963 [kcal/mol]      -41.686 [kJ/mol]      -0.01587754 [Eh]
    Rotational G           -3.468 [kcal/mol]      -14.512 [kJ/mol]      -0.00552730 [Eh]
    Vibrational G           1.077 [kcal/mol]        4.508 [kJ/mol]       0.00171700 [Eh]
  Correction G            -13.005 [kcal/mol]      -54.414 [kJ/mol]      -0.02072513 [Eh]
  Total G, Free enthalpy at  298.15 [K]                               -796.38403114 [Eh]

    Psi4 stopped on: Tuesday, 27 April 2021 05:49PM
    Psi4 wall time for execution: 0:01:18.48

*** Psi4 exiting successfully. Buy a developer a beer!
