                               Psi4 1.3.2 release

  ==> Input File <==

--------------------------------------------------------------------------
memory 144 GB

molecule {
0 3
S 0.0000000000 0.0000000000 0.0000000000
O 0.0000000000 0.0000000000 1.4862145500
}

set reference uks
set dynamic_level 1
set basis cc-pV(T+d)Z

optimize("wB97M-V")
frequencies("wB97M-V")
--------------------------------------------------------------------------

    Molecular point group: c2v
  Charge       = 0
  Multiplicity = 3
  Basis Set: CC-PV(T+D)Z
    Blend: CC-PV(T+D)Z
  Basis Set: (CC-PV(T+D)Z AUX)
    Blend: CC-PVTZ-JKFIT
  @DF-UKS Final Energy:  -473.37196463217725
    Total Energy =                       -473.3719646321771961
    Molecular point group: c2v
  Basis Set: CC-PV(T+D)Z
    Blend: CC-PV(T+D)Z
  Basis Set: (CC-PV(T+D)Z AUX)
    Blend: CC-PVTZ-JKFIT
  @DF-UKS Final Energy:  -473.37195297459402
    Total Energy =                       -473.3719529745940235
  Basis Set: CC-PV(T+D)Z
    Blend: CC-PV(T+D)Z
  Basis Set: (CC-PV(T+D)Z AUX)
    Blend: CC-PVTZ-JKFIT
  @DF-UKS Final Energy:  -473.37197495135996
    Total Energy =                       -473.3719749513599595
  Basis Set: CC-PV(T+D)Z
    Blend: CC-PV(T+D)Z
  Basis Set: (CC-PV(T+D)Z AUX)
    Blend: CC-PVTZ-JKFIT
  @DF-UKS Final Energy:  -473.37200550358290
    Total Energy =                       -473.3720055035828977
  @DF-UKS Final Energy:  -473.37200163618337
    Total Energy =                       -473.3720016361834837
  @DF-UKS Final Energy:  -473.37200799548674
    Total Energy =                       -473.3720079954867401
  @DF-UKS Final Energy:  -473.37200916638324
    Total Energy =                       -473.3720091663831795
  @DF-UKS Final Energy:  -473.37200853224431
    Total Energy =                       -473.3720085322443083
  @DF-UKS Final Energy:  -473.37200840994194
    Total Energy =                       -473.3720084099419410
  **** Optimization is complete! (in 3 steps) ****
    Final optimized geometry and variables:
  @DF-UKS Final Energy:  -473.37200916638312
    Total Energy =                       -473.3720091663831226
  @DF-UKS Final Energy:  -473.37200853224459
    Total Energy =                       -473.3720085322447062
  Basis Set: CC-PV(T+D)Z
    Blend: CC-PV(T+D)Z
  Basis Set: (CC-PV(T+D)Z AUX)
    Blend: CC-PVTZ-JKFIT
  @DF-UKS Final Energy:  -473.37200840994183
    Total Energy =                       -473.3720084099418273
  Basis Set: CC-PV(T+D)Z
    Blend: CC-PV(T+D)Z
  Basis Set: (CC-PV(T+D)Z AUX)
    Blend: CC-PVTZ-JKFIT
  @DF-UKS Final Energy:  -473.37200916638335
    Total Energy =                       -473.3720091663833500
  Multiplicity = 3
  Basis Set: CC-PV(T+D)Z
    Blend: CC-PV(T+D)Z
  Basis Set: (CC-PV(T+D)Z AUX)
    Blend: CC-PVTZ-JKFIT
  @DF-UKS Final Energy:  -473.37200853224510
    Total Energy =                       -473.3720085322451041
    Molecular point group: c2v

    Geometry (in Angstrom), charge = 0, multiplicity = 3:

       Center              X                  Y                   Z               Mass
    ------------   -----------------  -----------------  -----------------  -----------------
         S            0.000000000000     0.000000000000    -0.493130046297    31.972071174400
         O            0.000000000000     0.000000000000     0.985712603877    15.994914619570

  Charge       = 0
  Multiplicity = 3
  Basis Set: CC-PV(T+D)Z
    Blend: CC-PV(T+D)Z
  Basis Set: (CC-PV(T+D)Z AUX)
    Blend: CC-PVTZ-JKFIT

    Orbital Energies [Eh]
    ---------------------

    Alpha Occupied:

       1A1   -89.293451     2A1   -19.405181     3A1    -8.202349
       1B1    -6.112319     1B2    -6.112319     4A1    -6.109553
       5A1    -1.218241     6A1    -0.798282     2B2    -0.565175
       2B1    -0.565175     7A1    -0.559600     3B2    -0.351542
       3B1    -0.351542

    Alpha Virtual:

       8A1     0.090742     4B1     0.340464     4B2     0.340464
       9A1     0.359245     1A2     0.380803    10A1     0.380803
      11A1     0.385166     5B1     0.478243     5B2     0.478243
      12A1     0.582423     6B2     0.725082     6B1     0.725082
      13A1     0.875379    14A1     1.225868    15A1     1.393443
       2A2     1.393452     7B1     1.455176     7B2     1.455176
      16A1     1.465350     3A2     1.465355    17A1     1.525122
       8B1     1.649101     8B2     1.649101     9B1     1.665145
       9B2     1.665145    18A1     1.898020     4A2     1.898024
      10B1     1.929028    10B2     1.929028    19A1     1.970464
      20A1     2.229010    11B2     2.441595    11B1     2.441595
      21A1     2.538751    22A1     3.596441    12B2     3.811935
      12B1     3.811935    23A1     4.941972    13B2     5.176082
      13B1     5.176082     5A2     5.247010    24A1     5.247030
      14B2     5.347148    14B1     5.347148    25A1     5.480169
       6A2     6.286534    26A1     6.286547    15B2     6.577798
      15B1     6.577798    27A1     6.717074     7A2     6.717100
      28A1     6.761902    16B1     7.005261    16B2     7.005261
      29A1     7.455778    30A1     9.027476

    Beta Occupied:

       1A1   -89.286226     2A1   -19.383225     3A1    -8.195118
       4A1    -6.105215     1B1    -6.096652     1B2    -6.096652
       5A1    -1.178335     6A1    -0.734738     7A1    -0.524532
       2B1    -0.492267     2B2    -0.492267

    Beta Virtual:

       3B1    -0.035237     3B2    -0.035237     8A1     0.111452
       4B1     0.349504     4B2     0.349504     9A1     0.375711
      10A1     0.402539     1A2     0.429356    11A1     0.429357
       5B1     0.525997     5B2     0.525997    12A1     0.592754
       6B1     0.748283     6B2     0.748283    13A1     0.902063
      14A1     1.243323    15A1     1.436673     2A2     1.436675
       7B2     1.483715     7B1     1.483715    16A1     1.516968
       3A2     1.516969    17A1     1.553562     8B2     1.682310
       8B1     1.682310     9B1     1.734483     9B2     1.734483
      18A1     1.945889     4A2     1.945891    10B2     1.996822
      10B1     1.996822    19A1     2.003086    20A1     2.246307
      11B2     2.477048    11B1     2.477048    21A1     2.568581
      22A1     3.625959    12B1     3.882274    12B2     3.882274
      23A1     4.967070    13B2     5.236789    13B1     5.236789
       5A2     5.286996    24A1     5.287002    14B1     5.376592
      14B2     5.376592    25A1     5.505596     6A2     6.378870
      26A1     6.378887    15B1     6.622582    15B2     6.622582
      27A1     6.732737     7A2     6.732752    28A1     6.789057
      16B1     7.025667    16B2     7.025667    29A1     7.486085
      30A1     9.071430

    Final Occupation by Irrep:
             A1    A2    B1    B2
    DOCC [     7,    0,    2,    2 ]
    SOCC [     0,    0,    1,    1 ]

  @DF-UKS Final Energy:  -473.37200840994240

   => Energetics <=

    Nuclear Repulsion Energy =             45.8024949157311028
    One-Electron Energy =                -743.8107679930915310
    Two-Electron Energy =                 250.5769881643889505
    DFT Exchange-Correlation Energy =     -26.0415323779049999
    Empirical Dispersion Energy =           0.0000000000000000
    VV10 Nonlocal Energy =                  0.1008088809341432
    Total Energy =                       -473.3720084099423389

  UHF NO Occupations:
  HONO-2 :    2 B2 1.9983795
  HONO-1 :    3 B1 1.0000000
  HONO-0 :    3 B2 1.0000000
  LUNO+0 :    4 B2 0.0016205
  LUNO+1 :    4 B1 0.0016205
  LUNO+2 :    8 A1 0.0003228
  LUNO+3 :    9 A1 0.0001992

Computation Completed

Properties will be evaluated at   0.000000,   0.000000,   0.000000 [a0]

Properties computed using the SCF density matrix

  Nuclear Dipole Moment: [e a0]
     X:     0.0000      Y:     0.0000      Z:    -0.0083

  Electronic Dipole Moment: [e a0]
     X:     0.0000      Y:     0.0000      Z:    -0.6136

  Dipole Moment: [e a0]
     X:     0.0000      Y:     0.0000      Z:    -0.6219     Total:     0.6219

  Dipole Moment: [D]
     X:     0.0000      Y:     0.0000      Z:    -1.5808     Total:     1.5808

*** tstop() called on bp1-compute00100.data.bp.acrc.priv at Tue Apr 27 17:50:09 2021
Module time:
	user time   =     162.42 seconds =       2.71 minutes
	system time =       6.38 seconds =       0.11 minutes
	total time  =          7 seconds =       0.12 minutes
Total time:
	user time   =    1935.55 seconds =      32.26 minutes
	system time =      81.17 seconds =       1.35 minutes
	total time  =         84 seconds =       1.40 minutes

         ----------------------------------------------------------
                                   FINDIF
                     R. A. King and Jonathon Misiewicz
         ---------------------------------------------------------

  Computing second-derivative from energies using projected,
  symmetry-adapted, cartesian coordinates.

  3 energies passed in, including the reference geometry.
    Using 3-point formula.
    Energy without displacement: -473.3720091664
    Check energies below for precision!
    0: -1 :      -473.3720085322
    0: 1  :      -473.3720084099

-------------------------------------------------------------

  ==> Harmonic Vibrational Analysis <==

  non-mass-weighted Hessian:       Symmetric? True   Hermitian? True   Lin Dep Dim?  5 (0)
  projection of translations (True) and rotations (True) removed 5 degrees of freedom (5)
  total projector:                 Symmetric? True   Hermitian? True   Lin Dep Dim?  5 (5)
  mass-weighted Hessian:           Symmetric? True   Hermitian? True   Lin Dep Dim?  5 (0)
  pre-proj  low-frequency mode:    0.0000i [cm^-1]
  pre-proj  low-frequency mode:    0.0000  [cm^-1]
  pre-proj  low-frequency mode:    0.0000  [cm^-1]
  pre-proj  low-frequency mode:    0.0000  [cm^-1]
  pre-proj  low-frequency mode:    0.0000  [cm^-1]
  pre-proj  all modes:['0.0000i' '0.0000' '0.0000' '0.0000' '0.0000' '1212.3615']
  projected mass-weighted Hessian: Symmetric? True   Hermitian? True   Lin Dep Dim?  5 (5)
  post-proj low-frequency mode:    0.0000i [cm^-1] (TR)
  post-proj low-frequency mode:    0.0000  [cm^-1] (TR)
  post-proj low-frequency mode:    0.0000  [cm^-1] (TR)
  post-proj low-frequency mode:    0.0000  [cm^-1] (TR)
  post-proj low-frequency mode:    0.0000  [cm^-1] (TR)
  post-proj  all modes:['0.0000i' '0.0000' '0.0000' '0.0000' '0.0000' '1212.3615']

  Vibration                       6
  Freq [cm^-1]                1212.3615
  Irrep                           A1
  Reduced mass [u]             19.1932
  Force const [mDyne/A]        16.6212
  Turning point v=0 [a0]        0.0719
  RMS dev v=0 [a0 u^1/2]        0.2228
  Char temp [K]               1744.3183
  ----------------------------------------------------------------------------------
      1   S                0.00  0.00 -0.45
      2   O                0.00  0.00  0.89

  ==> Thermochemistry Components <==

  Entropy, S
    Electronic S            2.183 [cal/(mol K)]        9.134 [J/(mol K)]       0.00347910 [mEh/K] (multiplicity = 3)
    Translational S        37.528 [cal/(mol K)]      157.018 [J/(mol K)]       0.05980487 [mEh/K] (mol. weight = 47.9670 [u], P = 101325.00 [Pa])
    Rotational S           13.233 [cal/(mol K)]       55.368 [J/(mol K)]       0.02108854 [mEh/K] (symmetry no. = 1)
    Vibrational S           0.039 [cal/(mol K)]        0.164 [J/(mol K)]       0.00006261 [mEh/K]
  Total S                  52.984 [cal/(mol K)]      221.684 [J/(mol K)]       0.08443512 [mEh/K]
  Correction S              0.000 [cal/(mol K)]        0.000 [J/(mol K)]       0.00000000 [mEh/K]

  Constant volume heat capacity, Cv
    Electronic Cv           0.000 [cal/(mol K)]        0.000 [J/(mol K)]       0.00000000 [mEh/K]
    Translational Cv        2.981 [cal/(mol K)]       12.472 [J/(mol K)]       0.00475022 [mEh/K]
    Rotational Cv           1.987 [cal/(mol K)]        8.314 [J/(mol K)]       0.00316681 [mEh/K]
    Vibrational Cv          0.197 [cal/(mol K)]        0.824 [J/(mol K)]       0.00031382 [mEh/K]
  Total Cv                  5.165 [cal/(mol K)]       21.610 [J/(mol K)]       0.00823085 [mEh/K]
  Correction Cv             0.000 [cal/(mol K)]        0.000 [J/(mol K)]       0.00000000 [mEh/K]

  Constant pressure heat capacity, Cp
    Electronic Cp           0.000 [cal/(mol K)]        0.000 [J/(mol K)]       0.00000000 [mEh/K]
    Translational Cp        4.968 [cal/(mol K)]       20.786 [J/(mol K)]       0.00791703 [mEh/K]
    Rotational Cp           1.987 [cal/(mol K)]        8.314 [J/(mol K)]       0.00316681 [mEh/K]
    Vibrational Cp          0.197 [cal/(mol K)]        0.824 [J/(mol K)]       0.00031382 [mEh/K]
  Total Cp                  7.152 [cal/(mol K)]       29.925 [J/(mol K)]       0.01139766 [mEh/K]
  Correction Cp             0.000 [cal/(mol K)]        0.000 [J/(mol K)]       0.00000000 [mEh/K]

  ==> Thermochemistry Energy Analysis <==

  Raw electronic energy, E0
  Total E0, Electronic energy at well bottom at 0 [K]                 -473.37200917 [Eh]

  Zero-point energy, ZPE_vib = Sum_i nu_i / 2
    Electronic ZPE          0.000 [kcal/mol]        0.000 [kJ/mol]       0.00000000 [Eh]
    Translational ZPE       0.000 [kcal/mol]        0.000 [kJ/mol]       0.00000000 [Eh]
    Rotational ZPE          0.000 [kcal/mol]        0.000 [kJ/mol]       0.00000000 [Eh]
    Vibrational ZPE         1.733 [kcal/mol]        7.252 [kJ/mol]       0.00276196 [Eh]         606.181 [cm^-1]
  Correction ZPE            1.733 [kcal/mol]        7.252 [kJ/mol]       0.00276196 [Eh]         606.181 [cm^-1]
  Total ZPE, Electronic energy at 0 [K]                               -473.36924720 [Eh]

  Thermal Energy, E (includes ZPE)
    Electronic E            0.000 [kcal/mol]        0.000 [kJ/mol]       0.00000000 [Eh]
    Translational E         0.889 [kcal/mol]        3.718 [kJ/mol]       0.00141628 [Eh]
    Rotational E            0.592 [kcal/mol]        2.479 [kJ/mol]       0.00094418 [Eh]
    Vibrational E           1.743 [kcal/mol]        7.293 [kJ/mol]       0.00277791 [Eh]
  Correction E              3.224 [kcal/mol]       13.491 [kJ/mol]       0.00513837 [Eh]
  Total E, Electronic energy at  298.15 [K]                           -473.36687080 [Eh]

  Enthalpy, H_trans = E_trans + k_B * T
    Electronic H            0.000 [kcal/mol]        0.000 [kJ/mol]       0.00000000 [Eh]
    Translational H         1.481 [kcal/mol]        6.197 [kJ/mol]       0.00236046 [Eh]
    Rotational H            0.592 [kcal/mol]        2.479 [kJ/mol]       0.00094418 [Eh]
    Vibrational H           1.743 [kcal/mol]        7.293 [kJ/mol]       0.00277791 [Eh]
  Correction H              3.817 [kcal/mol]       15.970 [kJ/mol]       0.00608256 [Eh]
  Total H, Enthalpy at  298.15 [K]                                    -473.36592661 [Eh]

  Gibbs free energy, G = H - T * S
    Electronic G           -0.651 [kcal/mol]       -2.723 [kJ/mol]      -0.00103729 [Eh]
    Translational G        -9.708 [kcal/mol]      -40.617 [kJ/mol]      -0.01547036 [Eh]
    Rotational G           -3.353 [kcal/mol]      -14.029 [kJ/mol]      -0.00534336 [Eh]
    Vibrational G           1.731 [kcal/mol]        7.244 [kJ/mol]       0.00275924 [Eh]
  Correction G            -11.980 [kcal/mol]      -50.125 [kJ/mol]      -0.01909177 [Eh]
  Total G, Free enthalpy at  298.15 [K]                               -473.39110094 [Eh]

    Psi4 stopped on: Tuesday, 27 April 2021 05:50PM
    Psi4 wall time for execution: 0:01:24.85

*** Psi4 exiting successfully. Buy a developer a beer!
