                               Psi4 1.3.2 release

  ==> Input File <==

--------------------------------------------------------------------------
memory 144 GB

molecule {
0 1
    H           -0.000000000000     0.887019924760    -0.627210214550
    C           -0.000000000000     0.000000000000     0.000000185637
    H            0.887020023805     0.000000000000     0.627209109373
    H           -0.887020023805    -0.000000000000     0.627209109373
    H            0.000000000000    -0.887019924760    -0.627210214550
}

set basis aug-cc-pV(Q+d)Z

frequencies("WB97M-V")
optimize("WB97M-V")
frequencies("WB97M-V")
--------------------------------------------------------------------------

    Molecular point group: c2v
  Charge       = 0
  Multiplicity = 1
  Basis Set: AUG-CC-PV(Q+D)Z
    Blend: AUG-CC-PV(Q+D)Z
  Basis Set: (AUG-CC-PV(Q+D)Z AUX)
    Blend: AUG-CC-PVQZ-JKFIT
  @DF-RKS Final Energy:   -40.49520814990049
    Total Energy =                        -40.4952081499004848
    Molecular point group: c2v
  Basis Set: AUG-CC-PV(Q+D)Z
    Blend: AUG-CC-PV(Q+D)Z
  Basis Set: (AUG-CC-PV(Q+D)Z AUX)
    Blend: AUG-CC-PVQZ-JKFIT
  @DF-RKS Final Energy:   -40.49520480597845
    Total Energy =                        -40.4952048059784531
  Basis Set: AUG-CC-PV(Q+D)Z
    Blend: AUG-CC-PV(Q+D)Z
  Basis Set: (AUG-CC-PV(Q+D)Z AUX)
    Blend: AUG-CC-PVQZ-JKFIT
  @DF-RKS Final Energy:   -40.49520490507994
    Total Energy =                        -40.4952049050799445
  Basis Set: AUG-CC-PV(Q+D)Z
    Blend: AUG-CC-PV(Q+D)Z
  Basis Set: (AUG-CC-PV(Q+D)Z AUX)
    Blend: AUG-CC-PVQZ-JKFIT
  @DF-RKS Final Energy:   -40.49520592924317
    Total Energy =                        -40.4952059292431699
  @DF-RKS Final Energy:   -40.49520587355186
    Total Energy =                        -40.4952058735518605
  @DF-RKS Final Energy:   -40.49520592582378
    Total Energy =                        -40.4952059258237895
  @DF-RKS Final Energy:   -40.49520587021313
    Total Energy =                        -40.4952058702131339
  @DF-RKS Final Energy:   -40.49520479795563
    Total Energy =                        -40.4952047979556298
  @DF-RKS Final Energy:   -40.49520489370143
    Total Energy =                        -40.4952048937014197
  @DF-RKS Final Energy:   -40.49520814990063
    Total Energy =                        -40.4952081499006269
  @DF-RKS Final Energy:   -40.49520480597850
    Total Energy =                        -40.4952048059785028
  @DF-RKS Final Energy:   -40.49520490508004
    Total Energy =                        -40.4952049050800369
  @DF-RKS Final Energy:   -40.49520592924328
    Total Energy =                        -40.4952059292432764
  @DF-RKS Final Energy:   -40.49520587355177
    Total Energy =                        -40.4952058735517681
  @DF-RKS Final Energy:   -40.49520592582387
    Total Energy =                        -40.4952059258238677
  @DF-RKS Final Energy:   -40.49520587021338
    Total Energy =                        -40.4952058702133826
  @DF-RKS Final Energy:   -40.49520479795584
    Total Energy =                        -40.4952047979558429
  @DF-RKS Final Energy:   -40.49520489370150
    Total Energy =                        -40.4952048937015050
  @DF-RKS Final Energy:   -40.49520598444745
    Total Energy =                        -40.4952059844474519
  @DF-RKS Final Energy:   -40.49520597297183
    Total Energy =                        -40.4952059729718243

  Vibration                       1                   8                   9
  Freq [cm^-1]                1597.6078i          1330.5034           1453.6138
  Irrep                           A2                  A1                  B2
  Reduced mass [u]              1.0078              1.1789              1.1850
  Force const [mDyne/A]        -1.5156              1.2296              1.4753

  Vibration                       10                  11                  12
  Freq [cm^-1]                1500.5044           1553.6138           3050.9212
  Irrep                           B1                  A1                  A1
  Reduced mass [u]              1.1708              1.0078              1.0079
  Force const [mDyne/A]         1.5531              1.4333              5.5272

  Vibration                       13                  14                  15
  Freq [cm^-1]                3157.6099           3226.1068           3243.8774
  Irrep                           A1                  B1                  B2
  Reduced mass [u]              1.1017              1.1089              1.0964
  Force const [mDyne/A]         6.4718              6.7999              6.7976

    Irrep   Nso     Nmo     Nalpha   Nbeta   Ndocc  Nsocc

    Irrep   Nso     Nmo     Nalpha   Nbeta   Ndocc  Nsocc

    Irrep   Nso     Nmo     Nalpha   Nbeta   Ndocc  Nsocc

    Irrep   Nso     Nmo     Nalpha   Nbeta   Ndocc  Nsocc

    Irrep   Nso     Nmo     Nalpha   Nbeta   Ndocc  Nsocc

    Irrep   Nso     Nmo     Nalpha   Nbeta   Ndocc  Nsocc

    Irrep   Nso     Nmo     Nalpha   Nbeta   Ndocc  Nsocc

    Irrep   Nso     Nmo     Nalpha   Nbeta   Ndocc  Nsocc

    Irrep   Nso     Nmo     Nalpha   Nbeta   Ndocc  Nsocc

  **** Optimization is complete! (in 1 steps) ****
    Final optimized geometry and variables:

    Irrep   Nso     Nmo     Nalpha   Nbeta   Ndocc  Nsocc

    Irrep   Nso     Nmo     Nalpha   Nbeta   Ndocc  Nsocc

    Irrep   Nso     Nmo     Nalpha   Nbeta   Ndocc  Nsocc

    Irrep   Nso     Nmo     Nalpha   Nbeta   Ndocc  Nsocc

    Irrep   Nso     Nmo     Nalpha   Nbeta   Ndocc  Nsocc

    Irrep   Nso     Nmo     Nalpha   Nbeta   Ndocc  Nsocc

    Irrep   Nso     Nmo     Nalpha   Nbeta   Ndocc  Nsocc

    Irrep   Nso     Nmo     Nalpha   Nbeta   Ndocc  Nsocc

    Irrep   Nso     Nmo     Nalpha   Nbeta   Ndocc  Nsocc

     Irrep 1: 4
     Irrep 2: 1
     Irrep 3: 2
     Irrep 4: 2

      Irrep 1: 20
      Irrep 2: 1
      Irrep 3: 4
      Irrep 4: 4

    Irrep   Nso     Nmo     Nalpha   Nbeta   Ndocc  Nsocc

    Irrep   Nso     Nmo     Nalpha   Nbeta   Ndocc  Nsocc

    Irrep   Nso     Nmo     Nalpha   Nbeta   Ndocc  Nsocc

    Irrep   Nso     Nmo     Nalpha   Nbeta   Ndocc  Nsocc

    Irrep   Nso     Nmo     Nalpha   Nbeta   Ndocc  Nsocc

    Irrep   Nso     Nmo     Nalpha   Nbeta   Ndocc  Nsocc

    Irrep   Nso     Nmo     Nalpha   Nbeta   Ndocc  Nsocc

    Irrep   Nso     Nmo     Nalpha   Nbeta   Ndocc  Nsocc

    Irrep   Nso     Nmo     Nalpha   Nbeta   Ndocc  Nsocc

    Irrep   Nso     Nmo     Nalpha   Nbeta   Ndocc  Nsocc

    Irrep   Nso     Nmo     Nalpha   Nbeta   Ndocc  Nsocc

  @DF-RKS Final Energy:   -40.49520597455657
    Total Energy =                        -40.4952059745565620

    Irrep   Nso     Nmo     Nalpha   Nbeta   Ndocc  Nsocc

  @DF-RKS Final Energy:   -40.49520203779584
    Total Energy =                        -40.4952020377958419

    Irrep   Nso     Nmo     Nalpha   Nbeta   Ndocc  Nsocc

  @DF-RKS Final Energy:   -40.49520199264546
    Total Energy =                        -40.4952019926454554

    Irrep   Nso     Nmo     Nalpha   Nbeta   Ndocc  Nsocc

  @DF-RKS Final Energy:   -40.49520362894910
    Total Energy =                        -40.4952036289490991

    Irrep   Nso     Nmo     Nalpha   Nbeta   Ndocc  Nsocc

  @DF-RKS Final Energy:   -40.49520375195679
    Total Energy =                        -40.4952037519568009

    Irrep   Nso     Nmo     Nalpha   Nbeta   Ndocc  Nsocc

  @DF-RKS Final Energy:   -40.49520161342826
    Total Energy =                        -40.4952016134282644

    Irrep   Nso     Nmo     Nalpha   Nbeta   Ndocc  Nsocc

  @DF-RKS Final Energy:   -40.49520142884760
    Total Energy =                        -40.4952014288476079

    Irrep   Nso     Nmo     Nalpha   Nbeta   Ndocc  Nsocc

  @DF-RKS Final Energy:   -40.49520253883059
    Total Energy =                        -40.4952025388305756

    Irrep   Nso     Nmo     Nalpha   Nbeta   Ndocc  Nsocc

  @DF-RKS Final Energy:   -40.49520248953266
    Total Energy =                        -40.4952024895326588

    Irrep   Nso     Nmo     Nalpha   Nbeta   Ndocc  Nsocc

  @DF-RKS Final Energy:   -40.49520603651624
    Total Energy =                        -40.4952060365162438

    Irrep   Nso     Nmo     Nalpha   Nbeta   Ndocc  Nsocc

  @DF-RKS Final Energy:   -40.49520601250410
    Total Energy =                        -40.4952060125040987

    Irrep   Nso     Nmo     Nalpha   Nbeta   Ndocc  Nsocc

  @DF-RKS Final Energy:   -40.49520935099854
    Total Energy =                        -40.4952093509985431

    Irrep   Nso     Nmo     Nalpha   Nbeta   Ndocc  Nsocc

  @DF-RKS Final Energy:   -40.49520708856863
    Total Energy =                        -40.4952070885686268

    Irrep   Nso     Nmo     Nalpha   Nbeta   Ndocc  Nsocc

  @DF-RKS Final Energy:   -40.49520322032313
    Total Energy =                        -40.4952032203231269

    Irrep   Nso     Nmo     Nalpha   Nbeta   Ndocc  Nsocc

  @DF-RKS Final Energy:   -40.49520212132283
    Total Energy =                        -40.4952021213228335

    Irrep   Nso     Nmo     Nalpha   Nbeta   Ndocc  Nsocc

  @DF-RKS Final Energy:   -40.49520211883992
    Total Energy =                        -40.4952021188399200
  Basis Set: AUG-CC-PV(Q+D)Z
    Blend: AUG-CC-PV(Q+D)Z

    Irrep   Nso     Nmo     Nalpha   Nbeta   Ndocc  Nsocc

  Basis Set: (AUG-CC-PV(Q+D)Z AUX)
    Blend: AUG-CC-PVQZ-JKFIT
  @DF-RKS Final Energy:   -40.49520341905708
    Total Energy =                        -40.4952034190570913
  Basis Set: AUG-CC-PV(Q+D)Z
    Blend: AUG-CC-PV(Q+D)Z

    Irrep   Nso     Nmo     Nalpha   Nbeta   Ndocc  Nsocc

  Basis Set: (AUG-CC-PV(Q+D)Z AUX)
    Blend: AUG-CC-PVQZ-JKFIT
  @DF-RKS Final Energy:   -40.49520690354648
    Total Energy =                        -40.4952069035464817
  Multiplicity = 1
  Basis Set: AUG-CC-PV(Q+D)Z
    Blend: AUG-CC-PV(Q+D)Z

    Irrep   Nso     Nmo     Nalpha   Nbeta   Ndocc  Nsocc

  Basis Set: (AUG-CC-PV(Q+D)Z AUX)
    Blend: AUG-CC-PVQZ-JKFIT
  @DF-RKS Final Energy:   -40.49520408947107
    Total Energy =                        -40.4952040894710734
    Molecular point group: cs

    Geometry (in Angstrom), charge = 0, multiplicity = 1:

       Center              X                  Y                   Z               Mass
    ------------   -----------------  -----------------  -----------------  -----------------
         H            0.000000000000     0.885547442661    -0.627396631015     1.007825032230
         C            0.000000000000     0.000538951920     0.000000185637    12.000000000000
         H            0.887020023805    -0.001736121991     0.627209109373     1.007825032230
         H           -0.887020023805    -0.001736121991     0.627209109373     1.007825032230
         H            0.000000000000    -0.888492406859    -0.627023798085     1.007825032230

  Charge       = 0
  Multiplicity = 1
  Basis Set: AUG-CC-PV(Q+D)Z
    Blend: AUG-CC-PV(Q+D)Z

    Irrep   Nso     Nmo     Nalpha   Nbeta   Ndocc  Nsocc

  Basis Set: (AUG-CC-PV(Q+D)Z AUX)
    Blend: AUG-CC-PVQZ-JKFIT

    Orbital Energies [Eh]
    ---------------------

    Doubly Occupied:

       1Ap   -10.318805     2Ap    -0.813050     3Ap    -0.493864
       1App   -0.493286     4Ap    -0.492708

  @DF-RKS Final Energy:   -40.49520409377907

   => Energetics <=

    Nuclear Repulsion Energy =             13.4802962019450963
    One-Electron Energy =                 -79.8990579180650542
    Two-Electron Energy =                  30.4950231391855731
    DFT Exchange-Correlation Energy =      -4.6128110174865835
    Empirical Dispersion Energy =           0.0000000000000000
    VV10 Nonlocal Energy =                  0.0413455006419043
    Total Energy =                        -40.4952040937790656

  Dipole Moment: [D]
     X:     0.0000      Y:    -0.0003      Z:    -0.0000     Total:     0.0003

  Vibration                       1                   8                   9
  Freq [cm^-1]                1599.1031i          1318.7500           1448.9626
  Irrep                           A2                  A1                  B2
  Reduced mass [u]              1.0078              1.1791              1.1847
  Force const [mDyne/A]        -1.5184              1.2081              1.4655

  Vibration                       10                  11                  12
  Freq [cm^-1]                1491.7331           1556.5029           3046.1784
  Irrep                           B1                  A1                  A1
  Reduced mass [u]              1.1712              1.0078              1.0078
  Force const [mDyne/A]         1.5355              1.4386              5.5099

  Vibration                       13                  14                  15
  Freq [cm^-1]                3153.8931           3225.4042           3240.3736
  Irrep                           A1                  B1                  B2
  Reduced mass [u]              1.1016              1.1086              1.0967
  Force const [mDyne/A]         6.4559              6.7948              6.7845

  ==> Thermochemistry Components <==

  Entropy, S
    Electronic S            0.000 [cal/(mol K)]        0.000 [J/(mol K)]       0.00000000 [mEh/K] (multiplicity = 1)
    Translational S        34.261 [cal/(mol K)]      143.349 [J/(mol K)]       0.05459877 [mEh/K] (mol. weight = 16.0313 [u], P = 101325.00 [Pa])
    Rotational S           13.660 [cal/(mol K)]       57.155 [J/(mol K)]       0.02176921 [mEh/K] (symmetry no. = 2)
    Vibrational S           0.061 [cal/(mol K)]        0.257 [J/(mol K)]       0.00009774 [mEh/K]
  Total S                  47.983 [cal/(mol K)]      200.761 [J/(mol K)]       0.07646572 [mEh/K]
  Correction S              0.000 [cal/(mol K)]        0.000 [J/(mol K)]       0.00000000 [mEh/K]

  Constant volume heat capacity, Cv
    Electronic Cv           0.000 [cal/(mol K)]        0.000 [J/(mol K)]       0.00000000 [mEh/K]
    Translational Cv        2.981 [cal/(mol K)]       12.472 [J/(mol K)]       0.00475022 [mEh/K]
    Rotational Cv           2.981 [cal/(mol K)]       12.472 [J/(mol K)]       0.00475022 [mEh/K]
    Vibrational Cv          0.368 [cal/(mol K)]        1.538 [J/(mol K)]       0.00058567 [mEh/K]
  Total Cv                  6.329 [cal/(mol K)]       26.481 [J/(mol K)]       0.01008610 [mEh/K]
  Correction Cv             0.000 [cal/(mol K)]        0.000 [J/(mol K)]       0.00000000 [mEh/K]

  Constant pressure heat capacity, Cp
    Electronic Cp           0.000 [cal/(mol K)]        0.000 [J/(mol K)]       0.00000000 [mEh/K]
    Translational Cp        4.968 [cal/(mol K)]       20.786 [J/(mol K)]       0.00791703 [mEh/K]
    Rotational Cp           2.981 [cal/(mol K)]       12.472 [J/(mol K)]       0.00475022 [mEh/K]
    Vibrational Cp          0.368 [cal/(mol K)]        1.538 [J/(mol K)]       0.00058567 [mEh/K]
  Total Cp                  8.316 [cal/(mol K)]       34.796 [J/(mol K)]       0.01325291 [mEh/K]
  Correction Cp             0.000 [cal/(mol K)]        0.000 [J/(mol K)]       0.00000000 [mEh/K]

  ==> Thermochemistry Energy Analysis <==

  Raw electronic energy, E0
  Total E0, Electronic energy at well bottom at 0 [K]                  -40.49520814 [Eh]

  Zero-point energy, ZPE_vib = Sum_i nu_i / 2
    Electronic ZPE          0.000 [kcal/mol]        0.000 [kJ/mol]       0.00000000 [Eh]
    Translational ZPE       0.000 [kcal/mol]        0.000 [kJ/mol]       0.00000000 [Eh]
    Rotational ZPE          0.000 [kcal/mol]        0.000 [kJ/mol]       0.00000000 [Eh]
    Vibrational ZPE        26.421 [kcal/mol]      110.546 [kJ/mol]       0.04210463 [Eh]        9240.899 [cm^-1]
  Correction ZPE           26.421 [kcal/mol]      110.546 [kJ/mol]       0.04210463 [Eh]        9240.899 [cm^-1]
  Total ZPE, Electronic energy at 0 [K]                                -40.45310351 [Eh]

  Thermal Energy, E (includes ZPE)
    Electronic E            0.000 [kcal/mol]        0.000 [kJ/mol]       0.00000000 [Eh]
    Translational E         0.889 [kcal/mol]        3.718 [kJ/mol]       0.00141628 [Eh]
    Rotational E            0.889 [kcal/mol]        3.718 [kJ/mol]       0.00141628 [Eh]
    Vibrational E          26.437 [kcal/mol]      110.612 [kJ/mol]       0.04213006 [Eh]
  Correction E             28.214 [kcal/mol]      118.049 [kJ/mol]       0.04496261 [Eh]
  Total E, Electronic energy at  298.15 [K]                            -40.45024553 [Eh]

  Enthalpy, H_trans = E_trans + k_B * T
    Electronic H            0.000 [kcal/mol]        0.000 [kJ/mol]       0.00000000 [Eh]
    Translational H         1.481 [kcal/mol]        6.197 [kJ/mol]       0.00236046 [Eh]
    Rotational H            0.889 [kcal/mol]        3.718 [kJ/mol]       0.00141628 [Eh]
    Vibrational H          26.437 [kcal/mol]      110.612 [kJ/mol]       0.04213006 [Eh]
  Correction H             28.807 [kcal/mol]      120.528 [kJ/mol]       0.04590679 [Eh]
  Total H, Enthalpy at  298.15 [K]                                     -40.44930135 [Eh]

  Gibbs free energy, G = H - T * S
    Electronic G            0.000 [kcal/mol]        0.000 [kJ/mol]       0.00000000 [Eh]
    Translational G        -8.734 [kcal/mol]      -36.542 [kJ/mol]      -0.01391816 [Eh]
    Rotational G           -3.184 [kcal/mol]      -13.322 [kJ/mol]      -0.00507421 [Eh]
    Vibrational G          26.419 [kcal/mol]      110.536 [kJ/mol]       0.04210091 [Eh]
  Correction G             14.501 [kcal/mol]       60.671 [kJ/mol]       0.02310854 [Eh]
  Total G, Free enthalpy at  298.15 [K]                                -40.47209960 [Eh]

*** Psi4 exiting successfully. Buy a developer a beer!
