                               Psi4 1.3.2 release

  ==> Input File <==

--------------------------------------------------------------------------
memory 144 GB

molecule {
0 1
B 0.0000000000 0.0000000000 0.0000000000
H 0.0000000000 0.0000000000 1.1899000000
H 1.0304836280 0.0000000000 -0.5949500000
H -1.0304836280 -0.0000000000 -0.5949500000
}

set dynamic_level 1
set basis cc-pV(D+d)Z

optimize("wB97M-V")
frequencies("wB97M-V")
--------------------------------------------------------------------------

    Molecular point group: c2v
  Charge       = 0
  Multiplicity = 1
  Basis Set: CC-PV(D+D)Z
    Blend: CC-PV(D+D)Z
  Basis Set: (CC-PV(D+D)Z AUX)
    Blend: CC-PVDZ-JKFIT
  @DF-RKS Final Energy:   -26.56814488689135
    Total Energy =                        -26.5681448868913499
    Molecular point group: c2v
  Basis Set: CC-PV(D+D)Z
    Blend: CC-PV(D+D)Z
  Basis Set: (CC-PV(D+D)Z AUX)
    Blend: CC-PVDZ-JKFIT
  @DF-RKS Final Energy:   -26.56814262296941
    Total Energy =                        -26.5681426229694111
  Basis Set: CC-PV(D+D)Z
    Blend: CC-PV(D+D)Z
  Basis Set: (CC-PV(D+D)Z AUX)
    Blend: CC-PVDZ-JKFIT
  @DF-RKS Final Energy:   -26.56814261292751
    Total Energy =                        -26.5681426129275131
  Basis Set: CC-PV(D+D)Z
    Blend: CC-PV(D+D)Z
  Basis Set: (CC-PV(D+D)Z AUX)
    Blend: CC-PVDZ-JKFIT
  @DF-RKS Final Energy:   -26.56810956016799
    Total Energy =                        -26.5681095601679900
  @DF-RKS Final Energy:   -26.56817489797424
    Total Energy =                        -26.5681748979742380
  @DF-RKS Final Energy:   -26.56810956894816
    Total Energy =                        -26.5681095689481594
  @DF-RKS Final Energy:   -26.56817488910805
    Total Energy =                        -26.5681748891080538
  @DF-RKS Final Energy:   -26.56830970383762
    Total Energy =                        -26.5683097038376239
  @DF-RKS Final Energy:   -26.56830753096835
    Total Energy =                        -26.5683075309683439
  @DF-RKS Final Energy:   -26.56830753303688
    Total Energy =                        -26.5683075330368794
  @DF-RKS Final Energy:   -26.56830767464204
    Total Energy =                        -26.5683076746420426
  @DF-RKS Final Energy:   -26.56830666659850
    Total Energy =                        -26.5683066665984953
  @DF-RKS Final Energy:   -26.56830767446475
    Total Energy =                        -26.5683076744647515
  @DF-RKS Final Energy:   -26.56830666704693
    Total Energy =                        -26.5683066670469294
  **** Optimization is complete! (in 2 steps) ****
    Final optimized geometry and variables:
  @DF-RKS Final Energy:   -26.56830970384335
    Total Energy =                        -26.5683097038433544
  @DF-RKS Final Energy:   -26.56830753095988
    Total Energy =                        -26.5683075309598777
  @DF-RKS Final Energy:   -26.56830753304242
    Total Energy =                        -26.5683075330424252
  @DF-RKS Final Energy:   -26.56830767468930
    Total Energy =                        -26.5683076746893008
  @DF-RKS Final Energy:   -26.56830666659245
    Total Energy =                        -26.5683066665924486
  @DF-RKS Final Energy:   -26.56830767446531
    Total Energy =                        -26.5683076744653128
  @DF-RKS Final Energy:   -26.56830666704613
    Total Energy =                        -26.5683066670461265
  @DF-RKS Final Energy:   -26.56830970384337
    Total Energy =                        -26.5683097038433651
  @DF-RKS Final Energy:   -26.56830753095986
    Total Energy =                        -26.5683075309598635
  @DF-RKS Final Energy:   -26.56830753304240
    Total Energy =                        -26.5683075330424003
  @DF-RKS Final Energy:   -26.56830767468928
    Total Energy =                        -26.5683076746892830
  @DF-RKS Final Energy:   -26.56830666659244
    Total Energy =                        -26.5683066665924450
  @DF-RKS Final Energy:   -26.56830767446531
    Total Energy =                        -26.5683076744653057
  @DF-RKS Final Energy:   -26.56830666704611
    Total Energy =                        -26.5683066670461088
  @DF-RKS Final Energy:   -26.56830647804795
    Total Energy =                        -26.5683064780479512
  @DF-RKS Final Energy:   -26.56830749015596
    Total Energy =                        -26.5683074901559593
  @DF-RKS Final Energy:   -26.56830252666964
    Total Energy =                        -26.5683025266696404
  @DF-RKS Final Energy:   -26.56830350092826
    Total Energy =                        -26.5683035009282627
  @DF-RKS Final Energy:   -26.56830246131217
    Total Energy =                        -26.5683024613121752
  @DF-RKS Final Energy:   -26.56830446012773
    Total Energy =                        -26.5683044601277345
  @DF-RKS Final Energy:   -26.56830753185717
    Total Energy =                        -26.5683075318571653
  Basis Set: CC-PV(D+D)Z
    Blend: CC-PV(D+D)Z
  Basis Set: (CC-PV(D+D)Z AUX)
    Blend: CC-PVDZ-JKFIT
  @DF-RKS Final Energy:   -26.56830711582014
    Total Energy =                        -26.5683071158201365
  Basis Set: CC-PV(D+D)Z
    Blend: CC-PV(D+D)Z
  Basis Set: (CC-PV(D+D)Z AUX)
    Blend: CC-PVDZ-JKFIT
  @DF-RKS Final Energy:   -26.56830213761848
    Total Energy =                        -26.5683021376184882
  Multiplicity = 1
  Basis Set: CC-PV(D+D)Z
    Blend: CC-PV(D+D)Z
  Basis Set: (CC-PV(D+D)Z AUX)
    Blend: CC-PVDZ-JKFIT
  @DF-RKS Final Energy:   -26.56830213761246
    Total Energy =                        -26.5683021376124593
    Molecular point group: cs

    Geometry (in Angstrom), charge = 0, multiplicity = 1:

       Center              X                  Y                   Z               Mass
    ------------   -----------------  -----------------  -----------------  -----------------
         B            0.000000000000    -0.000370145531    -0.000000151847    11.009305360000
         H            0.000000000000     0.001347800220     1.201036258025     1.007825032230
         H            1.040124191141     0.001347802593    -0.600517299638     1.007825032230
         H           -1.040124191141     0.001347802593    -0.600517299638     1.007825032230

  Charge       = 0
  Multiplicity = 1
  Basis Set: CC-PV(D+D)Z
    Blend: CC-PV(D+D)Z
  Basis Set: (CC-PV(D+D)Z AUX)
    Blend: CC-PVDZ-JKFIT

    Orbital Energies [Eh]
    ---------------------

    Doubly Occupied:

       1Ap    -6.938660     2Ap    -0.621888     3Ap    -0.446059
       1App   -0.446058

  @DF-RKS Final Energy:   -26.56830909153619

   => Energetics <=

    Nuclear Repulsion Energy =              7.3721585537486654
    One-Electron Energy =                 -48.9295584488305693
    Two-Electron Energy =                  18.3026818880845887
    DFT Exchange-Correlation Energy =      -3.3474576567490777
    Empirical Dispersion Energy =           0.0000000000000000
    VV10 Nonlocal Energy =                  0.0338665722101963
    Total Energy =                        -26.5683090915361930

  Dipole Moment: [D]
     X:     0.0000      Y:    -0.0037      Z:     0.0000     Total:     0.0037

  Vibration                       7                   8                   9
  Freq [cm^-1]                1137.7162           1172.1619           1425.7301
  Irrep                           B2                  A1                  B1
  Reduced mass [u]              1.2531              1.1075              1.1352
  Force const [mDyne/A]         0.9557              0.8965              1.3596

  Vibration                       10                  11                  12
  Freq [cm^-1]                2568.8292           2707.0903           2833.6909
  Irrep                           A1                  A1                  B1
  Reduced mass [u]              1.0078              1.1270              1.0997
  Force const [mDyne/A]         3.9184              4.8662              5.2025

  ==> Thermochemistry Components <==

  Entropy, S
    Electronic S            0.000 [cal/(mol K)]        0.000 [J/(mol K)]       0.00000000 [mEh/K] (multiplicity = 1)
    Translational S        33.864 [cal/(mol K)]      141.688 [J/(mol K)]       0.05396630 [mEh/K] (mol. weight = 14.0328 [u], P = 101325.00 [Pa])
    Rotational S           13.232 [cal/(mol K)]       55.364 [J/(mol K)]       0.02108693 [mEh/K] (symmetry no. = 2)
    Vibrational S           0.116 [cal/(mol K)]        0.486 [J/(mol K)]       0.00018505 [mEh/K]
  Total S                  47.213 [cal/(mol K)]      197.538 [J/(mol K)]       0.07523828 [mEh/K]
  Correction S              0.000 [cal/(mol K)]        0.000 [J/(mol K)]       0.00000000 [mEh/K]

  Constant volume heat capacity, Cv
    Electronic Cv           0.000 [cal/(mol K)]        0.000 [J/(mol K)]       0.00000000 [mEh/K]
    Translational Cv        2.981 [cal/(mol K)]       12.472 [J/(mol K)]       0.00475022 [mEh/K]
    Rotational Cv           2.981 [cal/(mol K)]       12.472 [J/(mol K)]       0.00475022 [mEh/K]
    Vibrational Cv          0.572 [cal/(mol K)]        2.395 [J/(mol K)]       0.00091206 [mEh/K]
  Total Cv                  6.534 [cal/(mol K)]       27.338 [J/(mol K)]       0.01041249 [mEh/K]
  Correction Cv             0.000 [cal/(mol K)]        0.000 [J/(mol K)]       0.00000000 [mEh/K]

  Constant pressure heat capacity, Cp
    Electronic Cp           0.000 [cal/(mol K)]        0.000 [J/(mol K)]       0.00000000 [mEh/K]
    Translational Cp        4.968 [cal/(mol K)]       20.786 [J/(mol K)]       0.00791703 [mEh/K]
    Rotational Cp           2.981 [cal/(mol K)]       12.472 [J/(mol K)]       0.00475022 [mEh/K]
    Vibrational Cp          0.572 [cal/(mol K)]        2.395 [J/(mol K)]       0.00091206 [mEh/K]
  Total Cp                  8.521 [cal/(mol K)]       35.652 [J/(mol K)]       0.01357930 [mEh/K]
  Correction Cp             0.000 [cal/(mol K)]        0.000 [J/(mol K)]       0.00000000 [mEh/K]

  ==> Thermochemistry Energy Analysis <==

  Raw electronic energy, E0
  Total E0, Electronic energy at well bottom at 0 [K]                  -26.56830970 [Eh]

  Zero-point energy, ZPE_vib = Sum_i nu_i / 2
    Electronic ZPE          0.000 [kcal/mol]        0.000 [kJ/mol]       0.00000000 [Eh]
    Translational ZPE       0.000 [kcal/mol]        0.000 [kJ/mol]       0.00000000 [Eh]
    Rotational ZPE          0.000 [kcal/mol]        0.000 [kJ/mol]       0.00000000 [Eh]
    Vibrational ZPE        16.934 [kcal/mol]       70.850 [kJ/mol]       0.02698539 [Eh]        5922.609 [cm^-1]
  Correction ZPE           16.934 [kcal/mol]       70.850 [kJ/mol]       0.02698539 [Eh]        5922.609 [cm^-1]
  Total ZPE, Electronic energy at 0 [K]                                -26.54132431 [Eh]

  Thermal Energy, E (includes ZPE)
    Electronic E            0.000 [kcal/mol]        0.000 [kJ/mol]       0.00000000 [Eh]
    Translational E         0.889 [kcal/mol]        3.718 [kJ/mol]       0.00141628 [Eh]
    Rotational E            0.889 [kcal/mol]        3.718 [kJ/mol]       0.00141628 [Eh]
    Vibrational E          16.963 [kcal/mol]       70.974 [kJ/mol]       0.02703238 [Eh]
  Correction E             18.741 [kcal/mol]       78.410 [kJ/mol]       0.02986493 [Eh]
  Total E, Electronic energy at  298.15 [K]                            -26.53844477 [Eh]

  Enthalpy, H_trans = E_trans + k_B * T
    Electronic H            0.000 [kcal/mol]        0.000 [kJ/mol]       0.00000000 [Eh]
    Translational H         1.481 [kcal/mol]        6.197 [kJ/mol]       0.00236046 [Eh]
    Rotational H            0.889 [kcal/mol]        3.718 [kJ/mol]       0.00141628 [Eh]
    Vibrational H          16.963 [kcal/mol]       70.974 [kJ/mol]       0.02703238 [Eh]
  Correction H             19.333 [kcal/mol]       80.889 [kJ/mol]       0.03080912 [Eh]
  Total H, Enthalpy at  298.15 [K]                                     -26.53750059 [Eh]

  Gibbs free energy, G = H - T * S
    Electronic G            0.000 [kcal/mol]        0.000 [kJ/mol]       0.00000000 [Eh]
    Translational G        -8.615 [kcal/mol]      -36.047 [kJ/mol]      -0.01372959 [Eh]
    Rotational G           -3.056 [kcal/mol]      -12.788 [kJ/mol]      -0.00487079 [Eh]
    Vibrational G          16.928 [kcal/mol]       70.829 [kJ/mol]       0.02697721 [Eh]
  Correction G              5.257 [kcal/mol]       21.993 [kJ/mol]       0.00837682 [Eh]
  Total G, Free enthalpy at  298.15 [K]                                -26.55993288 [Eh]

*** Psi4 exiting successfully. Buy a developer a beer!
