                               Psi4 1.3.2 release

  ==> Input File <==

--------------------------------------------------------------------------
memory 144 GB

molecule {
0 1
C 0.0000000000 0.0000000000 0.0000000000
C 0.0000000000 0.0000000000 1.2065000000
H 0.0000000000 -0.0000000000 2.2699000000
H -0.0000000000 -0.0000000000 -1.0634000000
}

set dynamic_level 1
set basis cc-pV(D+d)Z

optimize("wB97M-V")
frequencies("wB97M-V")
--------------------------------------------------------------------------

    Molecular point group: d2h
  Charge       = 0
  Multiplicity = 1
  Basis Set: CC-PV(D+D)Z
    Blend: CC-PV(D+D)Z
  Basis Set: (CC-PV(D+D)Z AUX)
    Blend: CC-PVDZ-JKFIT
  @DF-RKS Final Energy:   -77.29368221122203
    Total Energy =                        -77.2936822112220341
    Molecular point group: d2h
  Basis Set: CC-PV(D+D)Z
    Blend: CC-PV(D+D)Z
  Basis Set: (CC-PV(D+D)Z AUX)
    Blend: CC-PVDZ-JKFIT
  @DF-RKS Final Energy:   -77.29367107068022
    Total Energy =                        -77.2936710706802330
  Basis Set: CC-PV(D+D)Z
    Blend: CC-PV(D+D)Z
  Basis Set: (CC-PV(D+D)Z AUX)
    Blend: CC-PVDZ-JKFIT
  @DF-RKS Final Energy:   -77.29368754494962
    Total Energy =                        -77.2936875449496341
  Basis Set: CC-PV(D+D)Z
    Blend: CC-PV(D+D)Z
  Basis Set: (CC-PV(D+D)Z AUX)
    Blend: CC-PVDZ-JKFIT
  @DF-RKS Final Energy:   -77.29362602795231
    Total Energy =                        -77.2936260279522998
  @DF-RKS Final Energy:   -77.29372759013131
    Total Energy =                        -77.2937275901313114
  @DF-RKS Final Energy:   -77.29380702073958
    Total Energy =                        -77.2938070207395782
  @DF-RKS Final Energy:   -77.29380547268721
    Total Energy =                        -77.2938054726872110
  @DF-RKS Final Energy:   -77.29380285538082
    Total Energy =                        -77.2938028553808039
  @DF-RKS Final Energy:   -77.29380742126089
    Total Energy =                        -77.2938074212608939
  @DF-RKS Final Energy:   -77.29379640687642
    Total Energy =                        -77.2937964068764245
  @DF-RKS Final Energy:   -77.29380852383156
    Total Energy =                        -77.2938085238315438
  @DF-RKS Final Energy:   -77.29380564902584
    Total Energy =                        -77.2938056490258560
  @DF-RKS Final Energy:   -77.29380568010862
    Total Energy =                        -77.2938056801086191
  @DF-RKS Final Energy:   -77.29380351157840
    Total Energy =                        -77.2938035115784032
  @DF-RKS Final Energy:   -77.29380326266825
    Total Energy =                        -77.2938032626682627
  **** Optimization is complete! (in 3 steps) ****
    Final optimized geometry and variables:
  @DF-RKS Final Energy:   -77.29380852383157
    Total Energy =                        -77.2938085238315722
  @DF-RKS Final Energy:   -77.29380564902587
    Total Energy =                        -77.2938056490258703
  @DF-RKS Final Energy:   -77.29380568010862
    Total Energy =                        -77.2938056801086049
  @DF-RKS Final Energy:   -77.29380351191226
    Total Energy =                        -77.2938035119122731
  @DF-RKS Final Energy:   -77.29380326266818
    Total Energy =                        -77.2938032626681775
  @DF-RKS Final Energy:   -77.29380852383154
    Total Energy =                        -77.2938085238315296
  @DF-RKS Final Energy:   -77.29380564902586
    Total Energy =                        -77.2938056490258703
  @DF-RKS Final Energy:   -77.29380568010863
    Total Energy =                        -77.2938056801086475
  @DF-RKS Final Energy:   -77.29380351191227
    Total Energy =                        -77.2938035119122588
  @DF-RKS Final Energy:   -77.29380326266825
    Total Energy =                        -77.2938032626682485
  @DF-RKS Final Energy:   -77.29379735151305
    Total Energy =                        -77.2937973515130494
  @DF-RKS Final Energy:   -77.29379752848043
    Total Energy =                        -77.2937975284804253
  @DF-RKS Final Energy:   -77.29380831016820
    Total Energy =                        -77.2938083101681883
  Basis Set: CC-PV(D+D)Z
    Blend: CC-PV(D+D)Z
  Basis Set: (CC-PV(D+D)Z AUX)
    Blend: CC-PVDZ-JKFIT
  @DF-RKS Final Energy:   -77.29380831032239
    Total Energy =                        -77.2938083103224045
  Basis Set: CC-PV(D+D)Z
    Blend: CC-PV(D+D)Z
  Basis Set: (CC-PV(D+D)Z AUX)
    Blend: CC-PVDZ-JKFIT
  @DF-RKS Final Energy:   -77.29380295702764
    Total Energy =                        -77.2938029570276228
  Multiplicity = 1
  Basis Set: CC-PV(D+D)Z
    Blend: CC-PV(D+D)Z
  Basis Set: (CC-PV(D+D)Z AUX)
    Blend: CC-PVDZ-JKFIT
  @DF-RKS Final Energy:   -77.29380823886768
    Total Energy =                        -77.2938082388676833
    Molecular point group: c2v

    Geometry (in Angstrom), charge = 0, multiplicity = 1:

       Center              X                  Y                   Z               Mass
    ------------   -----------------  -----------------  -----------------  -----------------
         C           -0.000150333491     0.000000000000    -0.604043197959    12.000000000000
         C           -0.000150333491     0.000000000000     0.604043197959    12.000000000000
         H            0.001789995126     0.000000000000     1.676474914185     1.007825032230
         H            0.001789995126     0.000000000000    -1.676474914185     1.007825032230

  Charge       = 0
  Multiplicity = 1
  Basis Set: CC-PV(D+D)Z
    Blend: CC-PV(D+D)Z
  Basis Set: (CC-PV(D+D)Z AUX)
    Blend: CC-PVDZ-JKFIT

    Orbital Energies [Eh]
    ---------------------

    Doubly Occupied:

       1A1   -10.367172     1B2   -10.364953     2A1    -0.869895
       2B2    -0.670864     3A1    -0.593417     1B1    -0.386076
       4A1    -0.386076

  @DF-RKS Final Energy:   -77.29380823805108

   => Energetics <=

    Nuclear Repulsion Energy =             24.6326189949881993
    One-Electron Energy =                -151.5832278922020748
    Two-Electron Energy =                  57.6121824018567779
    DFT Exchange-Correlation Energy =      -8.0131625053942805
    Empirical Dispersion Energy =           0.0000000000000000
    VV10 Nonlocal Energy =                  0.0577807627002847
    Total Energy =                        -77.2938082380510707

  Dipole Moment: [D]
     X:     0.0036      Y:     0.0000      Z:     0.0000     Total:     0.0036

  Vibration                       6                   7                   8
  Freq [cm^-1]                 671.8271            672.0696            776.1473
  Irrep                          B3g                 B2g                 B2u
  Reduced mass [u]              1.5743              1.5743              1.0848
  Force const [mDyne/A]         0.4186              0.4190              0.3850

  Vibration                       9                   10                  11
  Freq [cm^-1]                 777.2586           2096.6360           3430.4590
  Irrep                          B3u                  Ag                 B1u
  Reduced mass [u]              1.0848              3.7305              1.0848
  Force const [mDyne/A]         0.3861              9.6620              7.5216

  Vibration                       12
  Freq [cm^-1]                3536.5237
  Irrep                           Ag
  Reduced mass [u]              1.2384
  Force const [mDyne/A]         9.1255

  ==> Thermochemistry Components <==

  Entropy, S
    Electronic S            0.000 [cal/(mol K)]        0.000 [J/(mol K)]       0.00000000 [mEh/K] (multiplicity = 1)
    Translational S        35.704 [cal/(mol K)]      149.387 [J/(mol K)]       0.05689862 [mEh/K] (mol. weight = 26.0157 [u], P = 101325.00 [Pa])
    Rotational S           10.899 [cal/(mol K)]       45.602 [J/(mol K)]       0.01736870 [mEh/K] (symmetry no. = 2)
    Vibrational S           1.137 [cal/(mol K)]        4.759 [J/(mol K)]       0.00181249 [mEh/K]
  Total S                  47.741 [cal/(mol K)]      199.748 [J/(mol K)]       0.07607981 [mEh/K]
  Correction S              0.000 [cal/(mol K)]        0.000 [J/(mol K)]       0.00000000 [mEh/K]

  Constant volume heat capacity, Cv
    Electronic Cv           0.000 [cal/(mol K)]        0.000 [J/(mol K)]       0.00000000 [mEh/K]
    Translational Cv        2.981 [cal/(mol K)]       12.472 [J/(mol K)]       0.00475022 [mEh/K]
    Rotational Cv           1.987 [cal/(mol K)]        8.314 [J/(mol K)]       0.00316681 [mEh/K]
    Vibrational Cv          3.156 [cal/(mol K)]       13.204 [J/(mol K)]       0.00502916 [mEh/K]
  Total Cv                  8.124 [cal/(mol K)]       33.990 [J/(mol K)]       0.01294619 [mEh/K]
  Correction Cv             0.000 [cal/(mol K)]        0.000 [J/(mol K)]       0.00000000 [mEh/K]

  Constant pressure heat capacity, Cp
    Electronic Cp           0.000 [cal/(mol K)]        0.000 [J/(mol K)]       0.00000000 [mEh/K]
    Translational Cp        4.968 [cal/(mol K)]       20.786 [J/(mol K)]       0.00791703 [mEh/K]
    Rotational Cp           1.987 [cal/(mol K)]        8.314 [J/(mol K)]       0.00316681 [mEh/K]
    Vibrational Cp          3.156 [cal/(mol K)]       13.204 [J/(mol K)]       0.00502916 [mEh/K]
  Total Cp                 10.111 [cal/(mol K)]       42.305 [J/(mol K)]       0.01611300 [mEh/K]
  Correction Cp             0.000 [cal/(mol K)]        0.000 [J/(mol K)]       0.00000000 [mEh/K]

  ==> Thermochemistry Energy Analysis <==

  Raw electronic energy, E0
  Total E0, Electronic energy at well bottom at 0 [K]                  -77.29380852 [Eh]

  Zero-point energy, ZPE_vib = Sum_i nu_i / 2
    Electronic ZPE          0.000 [kcal/mol]        0.000 [kJ/mol]       0.00000000 [Eh]
    Translational ZPE       0.000 [kcal/mol]        0.000 [kJ/mol]       0.00000000 [Eh]
    Rotational ZPE          0.000 [kcal/mol]        0.000 [kJ/mol]       0.00000000 [Eh]
    Vibrational ZPE        17.099 [kcal/mol]       71.542 [kJ/mol]       0.02724898 [Eh]        5980.461 [cm^-1]
  Correction ZPE           17.099 [kcal/mol]       71.542 [kJ/mol]       0.02724898 [Eh]        5980.461 [cm^-1]
  Total ZPE, Electronic energy at 0 [K]                                -77.26655954 [Eh]

  Thermal Energy, E (includes ZPE)
    Electronic E            0.000 [kcal/mol]        0.000 [kJ/mol]       0.00000000 [Eh]
    Translational E         0.889 [kcal/mol]        3.718 [kJ/mol]       0.00141628 [Eh]
    Rotational E            0.592 [kcal/mol]        2.479 [kJ/mol]       0.00094418 [Eh]
    Vibrational E          17.363 [kcal/mol]       72.645 [kJ/mol]       0.02766907 [Eh]
  Correction E             18.844 [kcal/mol]       78.843 [kJ/mol]       0.03002953 [Eh]
  Total E, Electronic energy at  298.15 [K]                            -77.26377899 [Eh]

  Enthalpy, H_trans = E_trans + k_B * T
    Electronic H            0.000 [kcal/mol]        0.000 [kJ/mol]       0.00000000 [Eh]
    Translational H         1.481 [kcal/mol]        6.197 [kJ/mol]       0.00236046 [Eh]
    Rotational H            0.592 [kcal/mol]        2.479 [kJ/mol]       0.00094418 [Eh]
    Vibrational H          17.363 [kcal/mol]       72.645 [kJ/mol]       0.02766907 [Eh]
  Correction H             19.436 [kcal/mol]       81.321 [kJ/mol]       0.03097372 [Eh]
  Total H, Enthalpy at  298.15 [K]                                     -77.26283481 [Eh]

  Gibbs free energy, G = H - T * S
    Electronic G            0.000 [kcal/mol]        0.000 [kJ/mol]       0.00000000 [Eh]
    Translational G        -9.164 [kcal/mol]      -38.342 [kJ/mol]      -0.01460386 [Eh]
    Rotational G           -2.657 [kcal/mol]      -11.117 [kJ/mol]      -0.00423429 [Eh]
    Vibrational G          17.024 [kcal/mol]       71.226 [kJ/mol]       0.02712868 [Eh]
  Correction G              5.202 [kcal/mol]       21.767 [kJ/mol]       0.00829052 [Eh]
  Total G, Free enthalpy at  298.15 [K]                                -77.28551800 [Eh]

*** Psi4 exiting successfully. Buy a developer a beer!
