                               Psi4 1.3.2 release

  ==> Input File <==

--------------------------------------------------------------------------
memory 144 GB

molecule {
0 1
C 0.0000000000 0.0000000000 0.0000000000
C 0.0000000000 0.0000000000 1.3342000000
H 0.9234041342 0.0000000000 1.8987335198
H -0.9234041342 0.0000000000 1.8987335198
H 0.9234041342 0.0000000000 -0.5645335198
H -0.9234041342 -0.0000000000 -0.5645335198
}

set dynamic_level 1
set basis cc-pV(D+d)Z

optimize("wB97M-V")
frequencies("wB97M-V")
--------------------------------------------------------------------------

    Molecular point group: d2h
  Charge       = 0
  Multiplicity = 1
  Basis Set: CC-PV(D+D)Z
    Blend: CC-PV(D+D)Z
  Basis Set: (CC-PV(D+D)Z AUX)
    Blend: CC-PVDZ-JKFIT
  @DF-RKS Final Energy:   -78.53446694205098
    Total Energy =                        -78.5344669420509831
    Molecular point group: d2h
  Basis Set: CC-PV(D+D)Z
    Blend: CC-PV(D+D)Z
  Basis Set: (CC-PV(D+D)Z AUX)
    Blend: CC-PVDZ-JKFIT
  @DF-RKS Final Energy:   -78.53444091104222
    Total Energy =                        -78.5344409110422248
  Basis Set: CC-PV(D+D)Z
    Blend: CC-PV(D+D)Z
  Basis Set: (CC-PV(D+D)Z AUX)
    Blend: CC-PVDZ-JKFIT
  @DF-RKS Final Energy:   -78.53448986218397
    Total Energy =                        -78.5344898621839747
  Basis Set: CC-PV(D+D)Z
    Blend: CC-PV(D+D)Z
  Basis Set: (CC-PV(D+D)Z AUX)
    Blend: CC-PVDZ-JKFIT
  @DF-RKS Final Energy:   -78.53439984492380
    Total Energy =                        -78.5343998449237972
  @DF-RKS Final Energy:   -78.53452639441348
    Total Energy =                        -78.5345263944134757
  @DF-RKS Final Energy:   -78.53442659663499
    Total Energy =                        -78.5344265966350008
  @DF-RKS Final Energy:   -78.53450351769565
    Total Energy =                        -78.5345035176956543
  @DF-RKS Final Energy:   -78.53477499856845
    Total Energy =                        -78.5347749985684516
  @DF-RKS Final Energy:   -78.53477346824897
    Total Energy =                        -78.5347734682489573
  @DF-RKS Final Energy:   -78.53477338206785
    Total Energy =                        -78.5347733820678400
  @DF-RKS Final Energy:   -78.53477528253470
    Total Energy =                        -78.5347752825346959
  @DF-RKS Final Energy:   -78.53476749452153
    Total Energy =                        -78.5347674945215175
  @DF-RKS Final Energy:   -78.53477243943651
    Total Energy =                        -78.5347724394364946
  @DF-RKS Final Energy:   -78.53477390045271
    Total Energy =                        -78.5347739004527057
  @DF-RKS Final Energy:   -78.53477705388362
    Total Energy =                        -78.5347770538836301
  @DF-RKS Final Energy:   -78.53477498119348
    Total Energy =                        -78.5347749811934648
  @DF-RKS Final Energy:   -78.53477598027672
    Total Energy =                        -78.5347759802767200
  @DF-RKS Final Energy:   -78.53477402872133
    Total Energy =                        -78.5347740287213298
  @DF-RKS Final Energy:   -78.53477284761455
    Total Energy =                        -78.5347728476145477
  @DF-RKS Final Energy:   -78.53477460770188
    Total Energy =                        -78.5347746077018769
  **** Optimization is complete! (in 3 steps) ****
    Final optimized geometry and variables:
  @DF-RKS Final Energy:   -78.53477061260944
    Total Energy =                        -78.5347706126094209
  @DF-RKS Final Energy:   -78.53477357119830
    Total Energy =                        -78.5347735711983006
  @DF-RKS Final Energy:   -78.53477134575128
    Total Energy =                        -78.5347713457512810
  @DF-RKS Final Energy:   -78.53476856848640
    Total Energy =                        -78.5347685684864132
  @DF-RKS Final Energy:   -78.53476848186817
    Total Energy =                        -78.5347684818681699
  @DF-RKS Final Energy:   -78.53477541895558
    Total Energy =                        -78.5347754189555616
  @DF-RKS Final Energy:   -78.53477302661180
    Total Energy =                        -78.5347730266118020
  @DF-RKS Final Energy:   -78.53476788049107
    Total Energy =                        -78.5347678804910885
  @DF-RKS Final Energy:   -78.53476788044469
    Total Energy =                        -78.5347678804446900
  @DF-RKS Final Energy:   -78.53477660752314
    Total Energy =                        -78.5347766075231419
  @DF-RKS Final Energy:   -78.53477652424274
    Total Energy =                        -78.5347765242427442
  @DF-RKS Final Energy:   -78.53477502652865
    Total Energy =                        -78.5347750265286351
  @DF-RKS Final Energy:   -78.53477342851451
    Total Energy =                        -78.5347734285145123
  @DF-RKS Final Energy:   -78.53477475437791
    Total Energy =                        -78.5347747543779207
  @DF-RKS Final Energy:   -78.53477475447112
    Total Energy =                        -78.5347747544711012
  @DF-RKS Final Energy:   -78.53477660969733
    Total Energy =                        -78.5347766096973174
  Basis Set: CC-PV(D+D)Z
    Blend: CC-PV(D+D)Z
  Basis Set: (CC-PV(D+D)Z AUX)
    Blend: CC-PVDZ-JKFIT
  @DF-RKS Final Energy:   -78.53477319768960
    Total Energy =                        -78.5347731976896029
  Basis Set: CC-PV(D+D)Z
    Blend: CC-PV(D+D)Z
  Basis Set: (CC-PV(D+D)Z AUX)
    Blend: CC-PVDZ-JKFIT
  @DF-RKS Final Energy:   -78.53477555828040
    Total Energy =                        -78.5347755582804012
  Multiplicity = 1
  Basis Set: CC-PV(D+D)Z
    Blend: CC-PV(D+D)Z
  Basis Set: (CC-PV(D+D)Z AUX)
    Blend: CC-PVDZ-JKFIT
  @DF-RKS Final Energy:   -78.53477578262803
    Total Energy =                        -78.5347757826280315
    Molecular point group: c2v

    Geometry (in Angstrom), charge = 0, multiplicity = 1:

       Center              X                  Y                   Z               Mass
    ------------   -----------------  -----------------  -----------------  -----------------
         C           -0.000204817217     0.000000000000    -0.665238362980    12.000000000000
         C           -0.000204817217     0.000000000000     0.665238362980    12.000000000000
         H            0.933095345027     0.000000000000     1.234941739269     1.007825032230
         H           -0.930656621508     0.000000000000     1.237577333611     1.007825032230
         H            0.933095345027     0.000000000000    -1.234941739269     1.007825032230
         H           -0.930656621508     0.000000000000    -1.237577333611     1.007825032230

  Charge       = 0
  Multiplicity = 1
  Basis Set: CC-PV(D+D)Z
    Blend: CC-PV(D+D)Z
  Basis Set: (CC-PV(D+D)Z AUX)
    Blend: CC-PVDZ-JKFIT

    Orbital Energies [Eh]
    ---------------------

    Doubly Occupied:

       1A1   -10.358654     1B2   -10.357864     2A1    -0.879459
       2B2    -0.685788     3A1    -0.569551     4A1    -0.516863
       3B2    -0.446590     1B1    -0.368866

  @DF-RKS Final Energy:   -78.53477578260591

   => Energetics <=

    Nuclear Repulsion Energy =             33.2742966334470864
    One-Electron Energy =                -170.0327772199229628
    Two-Electron Energy =                  66.5851073516639076
    DFT Exchange-Correlation Energy =      -8.4263801670538072
    Empirical Dispersion Energy =           0.0000000000000000
    VV10 Nonlocal Energy =                  0.0649776192598876
    Total Energy =                        -78.5347757826058910

  Dipole Moment: [D]
     X:    -0.0004      Y:     0.0000      Z:     0.0000     Total:     0.0004

  Vibration                       7                   8                   9
  Freq [cm^-1]                 820.9710            969.0180            971.3867
  Irrep                          B3u                 B2u                 B3g
  Reduced mass [u]              1.0421              1.1607              1.5185
  Force const [mDyne/A]         0.4138              0.6422              0.8442

  Vibration                       10                  11                  12
  Freq [cm^-1]                1058.1325           1222.2872           1361.8496
  Irrep                           Au                 B2g                  Ag
  Reduced mass [u]              1.0078              1.5294              1.1346
  Force const [mDyne/A]         0.6648              1.3462              1.2399

  Vibration                       13                  14                  15
  Freq [cm^-1]                1431.2924           1719.4656           3146.5988
  Irrep                          B1u                  Ag                 B1u
  Reduced mass [u]              1.1126              3.8624              1.0471
  Force const [mDyne/A]         1.3430              6.7281              6.1085

  Vibration                       16                  17                  18
  Freq [cm^-1]                3167.5104           3236.6228           3261.8305
  Irrep                           Ag                 B2g                 B3u
  Reduced mass [u]              1.0781              1.1140              1.1184
  Force const [mDyne/A]         6.3729              6.8759              7.0107

  ==> Thermochemistry Components <==

  Entropy, S
    Electronic S            0.000 [cal/(mol K)]        0.000 [J/(mol K)]       0.00000000 [mEh/K] (multiplicity = 1)
    Translational S        35.927 [cal/(mol K)]      150.318 [J/(mol K)]       0.05725309 [mEh/K] (mol. weight = 28.0313 [u], P = 101325.00 [Pa])
    Rotational S           15.880 [cal/(mol K)]       66.442 [J/(mol K)]       0.02530633 [mEh/K] (symmetry no. = 4)
    Vibrational S           0.555 [cal/(mol K)]        2.322 [J/(mol K)]       0.00088434 [mEh/K]
  Total S                  52.362 [cal/(mol K)]      219.082 [J/(mol K)]       0.08344376 [mEh/K]
  Correction S              0.000 [cal/(mol K)]        0.000 [J/(mol K)]       0.00000000 [mEh/K]

  Constant volume heat capacity, Cv
    Electronic Cv           0.000 [cal/(mol K)]        0.000 [J/(mol K)]       0.00000000 [mEh/K]
    Translational Cv        2.981 [cal/(mol K)]       12.472 [J/(mol K)]       0.00475022 [mEh/K]
    Rotational Cv           2.981 [cal/(mol K)]       12.472 [J/(mol K)]       0.00475022 [mEh/K]
    Vibrational Cv          2.197 [cal/(mol K)]        9.194 [J/(mol K)]       0.00350162 [mEh/K]
  Total Cv                  8.159 [cal/(mol K)]       34.137 [J/(mol K)]       0.01300205 [mEh/K]
  Correction Cv             0.000 [cal/(mol K)]        0.000 [J/(mol K)]       0.00000000 [mEh/K]

  Constant pressure heat capacity, Cp
    Electronic Cp           0.000 [cal/(mol K)]        0.000 [J/(mol K)]       0.00000000 [mEh/K]
    Translational Cp        4.968 [cal/(mol K)]       20.786 [J/(mol K)]       0.00791703 [mEh/K]
    Rotational Cp           2.981 [cal/(mol K)]       12.472 [J/(mol K)]       0.00475022 [mEh/K]
    Vibrational Cp          2.197 [cal/(mol K)]        9.194 [J/(mol K)]       0.00350162 [mEh/K]
  Total Cp                 10.146 [cal/(mol K)]       42.451 [J/(mol K)]       0.01616886 [mEh/K]
  Correction Cp             0.000 [cal/(mol K)]        0.000 [J/(mol K)]       0.00000000 [mEh/K]

  ==> Thermochemistry Energy Analysis <==

  Raw electronic energy, E0
  Total E0, Electronic energy at well bottom at 0 [K]                  -78.53477705 [Eh]

  Zero-point energy, ZPE_vib = Sum_i nu_i / 2
    Electronic ZPE          0.000 [kcal/mol]        0.000 [kJ/mol]       0.00000000 [Eh]
    Translational ZPE       0.000 [kcal/mol]        0.000 [kJ/mol]       0.00000000 [Eh]
    Rotational ZPE          0.000 [kcal/mol]        0.000 [kJ/mol]       0.00000000 [Eh]
    Vibrational ZPE        31.975 [kcal/mol]      133.784 [kJ/mol]       0.05095570 [Eh]       11183.483 [cm^-1]
  Correction ZPE           31.975 [kcal/mol]      133.784 [kJ/mol]       0.05095570 [Eh]       11183.483 [cm^-1]
  Total ZPE, Electronic energy at 0 [K]                                -78.48382136 [Eh]

  Thermal Energy, E (includes ZPE)
    Electronic E            0.000 [kcal/mol]        0.000 [kJ/mol]       0.00000000 [Eh]
    Translational E         0.889 [kcal/mol]        3.718 [kJ/mol]       0.00141628 [Eh]
    Rotational E            0.889 [kcal/mol]        3.718 [kJ/mol]       0.00141628 [Eh]
    Vibrational E          32.111 [kcal/mol]      134.354 [kJ/mol]       0.05117281 [Eh]
  Correction E             33.889 [kcal/mol]      141.791 [kJ/mol]       0.05400537 [Eh]
  Total E, Electronic energy at  298.15 [K]                            -78.48077169 [Eh]

  Enthalpy, H_trans = E_trans + k_B * T
    Electronic H            0.000 [kcal/mol]        0.000 [kJ/mol]       0.00000000 [Eh]
    Translational H         1.481 [kcal/mol]        6.197 [kJ/mol]       0.00236046 [Eh]
    Rotational H            0.889 [kcal/mol]        3.718 [kJ/mol]       0.00141628 [Eh]
    Vibrational H          32.111 [kcal/mol]      134.354 [kJ/mol]       0.05117281 [Eh]
  Correction H             34.481 [kcal/mol]      144.270 [kJ/mol]       0.05494955 [Eh]
  Total H, Enthalpy at  298.15 [K]                                     -78.47982750 [Eh]

  Gibbs free energy, G = H - T * S
    Electronic G            0.000 [kcal/mol]        0.000 [kJ/mol]       0.00000000 [Eh]
    Translational G        -9.230 [kcal/mol]      -38.620 [kJ/mol]      -0.01470955 [Eh]
    Rotational G           -3.846 [kcal/mol]      -16.091 [kJ/mol]      -0.00612880 [Eh]
    Vibrational G          31.946 [kcal/mol]      133.662 [kJ/mol]       0.05090915 [Eh]
  Correction G             18.870 [kcal/mol]       78.951 [kJ/mol]       0.03007080 [Eh]
  Total G, Free enthalpy at  298.15 [K]                                -78.50470626 [Eh]

*** Psi4 exiting successfully. Buy a developer a beer!
