                               Psi4 1.3.2 release

  ==> Input File <==

--------------------------------------------------------------------------
memory 144 GB

molecule {
0 1
C 0.0000000000 0.0000000000 0.0000000000
Cl 0.0000000000 0.0000000000 1.7182578700
Cl 1.6229007750 0.0000000000 -0.5644494507
}

set dynamic_level 1
set basis cc-pV(D+d)Z

optimize("wB97M-V")
frequencies("wB97M-V")
--------------------------------------------------------------------------

    Molecular point group: c2v
  Charge       = 0
  Multiplicity = 1
  Basis Set: CC-PV(D+D)Z
    Blend: CC-PV(D+D)Z
  Basis Set: (CC-PV(D+D)Z AUX)
    Blend: CC-PVDZ-JKFIT
  @DF-RKS Final Energy:  -958.35495008215150
    Total Energy =                       -958.3549500821515039
    Molecular point group: c2v
  Basis Set: CC-PV(D+D)Z
    Blend: CC-PV(D+D)Z
  Basis Set: (CC-PV(D+D)Z AUX)
    Blend: CC-PVDZ-JKFIT
  @DF-RKS Final Energy:  -958.35495497530576
    Total Energy =                       -958.3549549753058727
  Basis Set: CC-PV(D+D)Z
    Blend: CC-PV(D+D)Z
  Basis Set: (CC-PV(D+D)Z AUX)
    Blend: CC-PVDZ-JKFIT
  @DF-RKS Final Energy:  -958.35494469089986
    Total Energy =                       -958.3549446908997425
  Basis Set: CC-PV(D+D)Z
    Blend: CC-PV(D+D)Z
  Basis Set: (CC-PV(D+D)Z AUX)
    Blend: CC-PVDZ-JKFIT
  @DF-RKS Final Energy:  -958.35494775044344
    Total Energy =                       -958.3549477504434435
  @DF-RKS Final Energy:  -958.35495225223690
    Total Energy =                       -958.3549522522368989
  @DF-RKS Final Energy:  -958.35497624082348
    Total Energy =                       -958.3549762408234756
  @DF-RKS Final Energy:  -958.35497774300609
    Total Energy =                       -958.3549777430059748
  @DF-RKS Final Energy:  -958.35497424445248
    Total Energy =                       -958.3549742444525918
  @DF-RKS Final Energy:  -958.35497544632995
    Total Energy =                       -958.3549754463299450
  @DF-RKS Final Energy:  -958.35497687592249
    Total Energy =                       -958.3549768759223753
  @DF-RKS Final Energy:  -958.35497956477241
    Total Energy =                       -958.3549795647724068
  @DF-RKS Final Energy:  -958.35497930633130
    Total Energy =                       -958.3549793063313018
  @DF-RKS Final Energy:  -958.35497933088277
    Total Energy =                       -958.3549793308827702
  @DF-RKS Final Energy:  -958.35497943982591
    Total Energy =                       -958.3549794398259110
  @DF-RKS Final Energy:  -958.35497953124514
    Total Energy =                       -958.3549795312452488
  **** Optimization is complete! (in 3 steps) ****
    Final optimized geometry and variables:
  @DF-RKS Final Energy:  -958.35497956477263
    Total Energy =                       -958.3549795647726341
  @DF-RKS Final Energy:  -958.35497930635347
    Total Energy =                       -958.3549793063534707
  @DF-RKS Final Energy:  -958.35497933088288
    Total Energy =                       -958.3549793308827702
  @DF-RKS Final Energy:  -958.35497943982568
    Total Energy =                       -958.3549794398256836
  @DF-RKS Final Energy:  -958.35497953124445
    Total Energy =                       -958.3549795312445667
  @DF-RKS Final Energy:  -958.35497956477229
    Total Energy =                       -958.3549795647725205
  @DF-RKS Final Energy:  -958.35497930635336
    Total Energy =                       -958.3549793063532434
  @DF-RKS Final Energy:  -958.35497933088232
    Total Energy =                       -958.3549793308824292
  @DF-RKS Final Energy:  -958.35497943982557
    Total Energy =                       -958.3549794398256836
  Basis Set: CC-PV(D+D)Z
    Blend: CC-PV(D+D)Z
  Basis Set: (CC-PV(D+D)Z AUX)
    Blend: CC-PVDZ-JKFIT
  @DF-RKS Final Energy:  -958.35497953124536
    Total Energy =                       -958.3549795312453625
  Basis Set: CC-PV(D+D)Z
    Blend: CC-PV(D+D)Z
  Basis Set: (CC-PV(D+D)Z AUX)
    Blend: CC-PVDZ-JKFIT
  @DF-RKS Final Energy:  -958.35497943010000
    Total Energy =                       -958.3549794301000020
  Multiplicity = 1
  Basis Set: CC-PV(D+D)Z
    Blend: CC-PV(D+D)Z
  Basis Set: (CC-PV(D+D)Z AUX)
    Blend: CC-PVDZ-JKFIT
  @DF-RKS Final Energy:  -958.35497931403313
    Total Energy =                       -958.3549793140331303
    Molecular point group: cs

    Geometry (in Angstrom), charge = 0, multiplicity = 1:

       Center              X                  Y                   Z               Mass
    ------------   -----------------  -----------------  -----------------  -----------------
         C            0.000000000000    -0.000680637361    -0.855910538051    12.000000000000
         CL           0.000000000000     1.402567828545     0.146941715722    34.968852682000
         CL           0.000000000000    -1.402334259305     0.146774711008    34.968852682000

  Charge       = 0
  Multiplicity = 1
  Basis Set: CC-PV(D+D)Z
    Blend: CC-PV(D+D)Z
  Basis Set: (CC-PV(D+D)Z AUX)
    Blend: CC-PVDZ-JKFIT

    Orbital Energies [Eh]
    ---------------------

    Doubly Occupied:

       1Ap  -101.922264     2Ap  -101.921977     3Ap   -10.510092
       4Ap    -9.688991     5Ap    -9.688676     6Ap    -7.392140
       7Ap    -7.391836     1App   -7.386762     2App   -7.386450
       8Ap    -7.383432     9Ap    -7.383128    10Ap    -1.061310
      11Ap    -0.978860    12Ap    -0.720116    13Ap    -0.566818
      14Ap    -0.521849     3App   -0.518481     4App   -0.446356
      15Ap    -0.426057    16Ap    -0.357794

  @DF-RKS Final Energy:  -958.35497927434881

   => Energetics <=

    Nuclear Repulsion Energy =            117.1379490480528602
    One-Electron Energy =               -1553.9902730633516512
    Two-Electron Energy =                 525.7978853075953793
    DFT Exchange-Correlation Energy =     -47.4660577219760995
    Empirical Dispersion Energy =           0.0000000000000000
    VV10 Nonlocal Energy =                  0.1655171553307714
    Total Energy =                       -958.3549792743486933

  Dipole Moment: [D]
     X:     0.0000      Y:    -0.0082      Z:     1.1488     Total:     1.1488

  Vibration                       7                   8                   9
  Freq [cm^-1]                 344.3150            754.5291            783.5472
  Irrep                           A1                  A1                  B2
  Reduced mass [u]             29.6996             14.2362             13.8768
  Force const [mDyne/A]         2.0745              4.7753              5.0196

  ==> Thermochemistry Components <==

  Entropy, S
    Electronic S            0.000 [cal/(mol K)]        0.000 [J/(mol K)]       0.00000000 [mEh/K] (multiplicity = 1)
    Translational S        39.124 [cal/(mol K)]      163.696 [J/(mol K)]       0.06234835 [mEh/K] (mol. weight = 81.9377 [u], P = 101325.00 [Pa])
    Rotational S           22.394 [cal/(mol K)]       93.695 [J/(mol K)]       0.03568649 [mEh/K] (symmetry no. = 2)
    Vibrational S           1.661 [cal/(mol K)]        6.949 [J/(mol K)]       0.00264673 [mEh/K]
  Total S                  63.179 [cal/(mol K)]      264.339 [J/(mol K)]       0.10068158 [mEh/K]
  Correction S              0.000 [cal/(mol K)]        0.000 [J/(mol K)]       0.00000000 [mEh/K]

  Constant volume heat capacity, Cv
    Electronic Cv           0.000 [cal/(mol K)]        0.000 [J/(mol K)]       0.00000000 [mEh/K]
    Translational Cv        2.981 [cal/(mol K)]       12.472 [J/(mol K)]       0.00475022 [mEh/K]
    Rotational Cv           2.981 [cal/(mol K)]       12.472 [J/(mol K)]       0.00475022 [mEh/K]
    Vibrational Cv          2.994 [cal/(mol K)]       12.525 [J/(mol K)]       0.00477069 [mEh/K]
  Total Cv                  8.955 [cal/(mol K)]       37.469 [J/(mol K)]       0.01427112 [mEh/K]
  Correction Cv             0.000 [cal/(mol K)]        0.000 [J/(mol K)]       0.00000000 [mEh/K]

  Constant pressure heat capacity, Cp
    Electronic Cp           0.000 [cal/(mol K)]        0.000 [J/(mol K)]       0.00000000 [mEh/K]
    Translational Cp        4.968 [cal/(mol K)]       20.786 [J/(mol K)]       0.00791703 [mEh/K]
    Rotational Cp           2.981 [cal/(mol K)]       12.472 [J/(mol K)]       0.00475022 [mEh/K]
    Vibrational Cp          2.994 [cal/(mol K)]       12.525 [J/(mol K)]       0.00477069 [mEh/K]
  Total Cp                 10.942 [cal/(mol K)]       45.783 [J/(mol K)]       0.01743793 [mEh/K]
  Correction Cp             0.000 [cal/(mol K)]        0.000 [J/(mol K)]       0.00000000 [mEh/K]

  ==> Thermochemistry Energy Analysis <==

  Raw electronic energy, E0
  Total E0, Electronic energy at well bottom at 0 [K]                 -958.35497956 [Eh]

  Zero-point energy, ZPE_vib = Sum_i nu_i / 2
    Electronic ZPE          0.000 [kcal/mol]        0.000 [kJ/mol]       0.00000000 [Eh]
    Translational ZPE       0.000 [kcal/mol]        0.000 [kJ/mol]       0.00000000 [Eh]
    Rotational ZPE          0.000 [kcal/mol]        0.000 [kJ/mol]       0.00000000 [Eh]
    Vibrational ZPE         2.691 [kcal/mol]       11.259 [kJ/mol]       0.00428840 [Eh]         941.196 [cm^-1]
  Correction ZPE            2.691 [kcal/mol]       11.259 [kJ/mol]       0.00428840 [Eh]         941.196 [cm^-1]
  Total ZPE, Electronic energy at 0 [K]                               -958.35069116 [Eh]

  Thermal Energy, E (includes ZPE)
    Electronic E            0.000 [kcal/mol]        0.000 [kJ/mol]       0.00000000 [Eh]
    Translational E         0.889 [kcal/mol]        3.718 [kJ/mol]       0.00141628 [Eh]
    Rotational E            0.889 [kcal/mol]        3.718 [kJ/mol]       0.00141628 [Eh]
    Vibrational E           3.032 [kcal/mol]       12.686 [kJ/mol]       0.00483189 [Eh]
  Correction E              4.810 [kcal/mol]       20.123 [kJ/mol]       0.00766444 [Eh]
  Total E, Electronic energy at  298.15 [K]                           -958.34731513 [Eh]

  Enthalpy, H_trans = E_trans + k_B * T
    Electronic H            0.000 [kcal/mol]        0.000 [kJ/mol]       0.00000000 [Eh]
    Translational H         1.481 [kcal/mol]        6.197 [kJ/mol]       0.00236046 [Eh]
    Rotational H            0.889 [kcal/mol]        3.718 [kJ/mol]       0.00141628 [Eh]
    Vibrational H           3.032 [kcal/mol]       12.686 [kJ/mol]       0.00483189 [Eh]
  Correction H              5.402 [kcal/mol]       22.602 [kJ/mol]       0.00860862 [Eh]
  Total H, Enthalpy at  298.15 [K]                                    -958.34637094 [Eh]

  Gibbs free energy, G = H - T * S
    Electronic G            0.000 [kcal/mol]        0.000 [kJ/mol]       0.00000000 [Eh]
    Translational G       -10.184 [kcal/mol]      -42.608 [kJ/mol]      -0.01622870 [Eh]
    Rotational G           -5.788 [kcal/mol]      -24.217 [kJ/mol]      -0.00922365 [Eh]
    Vibrational G           2.537 [kcal/mol]       10.614 [kJ/mol]       0.00404276 [Eh]
  Correction G            -13.435 [kcal/mol]      -56.211 [kJ/mol]      -0.02140959 [Eh]
  Total G, Free enthalpy at  298.15 [K]                               -958.37638915 [Eh]

*** Psi4 exiting successfully. Buy a developer a beer!
