                               Psi4 1.3.2 release

  ==> Input File <==

--------------------------------------------------------------------------
memory 144 GB

molecule {
0 1
C 0.0000000000 0.0000000000 0.0000000000
F 0.0000000000 0.0000000000 1.2971000000
F 1.2538059978 0.0000000000 -0.3323235319
}

set dynamic_level 1
set basis cc-pV(D+d)Z

optimize("wB97M-V")
frequencies("wB97M-V")
--------------------------------------------------------------------------

    Molecular point group: c2v
  Charge       = 0
  Multiplicity = 1
  Basis Set: CC-PV(D+D)Z
    Blend: CC-PV(D+D)Z
  Basis Set: (CC-PV(D+D)Z AUX)
    Blend: CC-PVDZ-JKFIT
  @DF-RKS Final Energy:  -237.65700197395520
    Total Energy =                       -237.6570019739552038
    Molecular point group: c2v
  Basis Set: CC-PV(D+D)Z
    Blend: CC-PV(D+D)Z
  Basis Set: (CC-PV(D+D)Z AUX)
    Blend: CC-PVDZ-JKFIT
  @DF-RKS Final Energy:  -237.65702873061124
    Total Energy =                       -237.6570287306112448
  Basis Set: CC-PV(D+D)Z
    Blend: CC-PV(D+D)Z
  Basis Set: (CC-PV(D+D)Z AUX)
    Blend: CC-PVDZ-JKFIT
  @DF-RKS Final Energy:  -237.65697381129269
    Total Energy =                       -237.6569738112926871
  Basis Set: CC-PV(D+D)Z
    Blend: CC-PV(D+D)Z
  Basis Set: (CC-PV(D+D)Z AUX)
    Blend: CC-PVDZ-JKFIT
  @DF-RKS Final Energy:  -237.65698857450073
    Total Energy =                       -237.6569885745007298
  @DF-RKS Final Energy:  -237.65701474777501
    Total Energy =                       -237.6570147477750083
  @DF-RKS Final Energy:  -237.65727006536906
    Total Energy =                       -237.6572700653690617
  @DF-RKS Final Energy:  -237.65727454975814
    Total Energy =                       -237.6572745497581707
  @DF-RKS Final Energy:  -237.65726422227797
    Total Energy =                       -237.6572642222779734
  @DF-RKS Final Energy:  -237.65726403571867
    Total Energy =                       -237.6572640357186685
  @DF-RKS Final Energy:  -237.65727549087231
    Total Energy =                       -237.6572754908723084
  @DF-RKS Final Energy:  -237.65727912412737
    Total Energy =                       -237.6572791241273706
  @DF-RKS Final Energy:  -237.65727918937529
    Total Energy =                       -237.6572791893752878
  @DF-RKS Final Energy:  -237.65727773141143
    Total Energy =                       -237.6572777314114262
  @DF-RKS Final Energy:  -237.65728285918397
    Total Energy =                       -237.6572828591839652
  @DF-RKS Final Energy:  -237.65727481238244
    Total Energy =                       -237.6572748123824397
  @DF-RKS Final Energy:  -237.65729830953205
    Total Energy =                       -237.6572983095320239
  @DF-RKS Final Energy:  -237.65729736934233
    Total Energy =                       -237.6572973693423592
  @DF-RKS Final Energy:  -237.65729791302110
    Total Energy =                       -237.6572979130210967
  @DF-RKS Final Energy:  -237.65729795559176
    Total Energy =                       -237.6572979555917868
  @DF-RKS Final Energy:  -237.65729807554339
    Total Energy =                       -237.6572980755433662
  **** Optimization is complete! (in 4 steps) ****
    Final optimized geometry and variables:
  @DF-RKS Final Energy:  -237.65729830953208
    Total Energy =                       -237.6572983095321092
  @DF-RKS Final Energy:  -237.65729736934233
    Total Energy =                       -237.6572973693423307
  @DF-RKS Final Energy:  -237.65729791302110
    Total Energy =                       -237.6572979130210967
  @DF-RKS Final Energy:  -237.65729795559182
    Total Energy =                       -237.6572979555918153
  @DF-RKS Final Energy:  -237.65729807554348
    Total Energy =                       -237.6572980755434514
  @DF-RKS Final Energy:  -237.65729830953202
    Total Energy =                       -237.6572983095320239
  @DF-RKS Final Energy:  -237.65729736934239
    Total Energy =                       -237.6572973693423876
  @DF-RKS Final Energy:  -237.65729791302095
    Total Energy =                       -237.6572979130209831
  @DF-RKS Final Energy:  -237.65729795559173
    Total Energy =                       -237.6572979555917300
  Basis Set: CC-PV(D+D)Z
    Blend: CC-PV(D+D)Z
  Basis Set: (CC-PV(D+D)Z AUX)
    Blend: CC-PVDZ-JKFIT
  @DF-RKS Final Energy:  -237.65729807554342
    Total Energy =                       -237.6572980755434230
  Basis Set: CC-PV(D+D)Z
    Blend: CC-PV(D+D)Z
  Basis Set: (CC-PV(D+D)Z AUX)
    Blend: CC-PVDZ-JKFIT
  @DF-RKS Final Energy:  -237.65729806393358
    Total Energy =                       -237.6572980639335810
  Multiplicity = 1
  Basis Set: CC-PV(D+D)Z
    Blend: CC-PV(D+D)Z
  Basis Set: (CC-PV(D+D)Z AUX)
    Blend: CC-PVDZ-JKFIT
  @DF-RKS Final Energy:  -237.65729739948850
    Total Energy =                       -237.6572973994884990
    Molecular point group: cs

    Geometry (in Angstrom), charge = 0, multiplicity = 1:

       Center              X                  Y                   Z               Mass
    ------------   -----------------  -----------------  -----------------  -----------------
         C            0.000000000000    -0.000621890512    -0.612676105901    12.000000000000
         F            0.000000000000     1.032406102170     0.193646320207    18.998403162730
         F            0.000000000000    -1.032013296202     0.193339533701    18.998403162730

  Charge       = 0
  Multiplicity = 1
  Basis Set: CC-PV(D+D)Z
    Blend: CC-PV(D+D)Z
  Basis Set: (CC-PV(D+D)Z AUX)
    Blend: CC-PVDZ-JKFIT

    Orbital Energies [Eh]
    ---------------------

    Doubly Occupied:

       1Ap   -24.988630     2Ap   -24.987967     3Ap   -10.553305
       4Ap    -1.464085     5Ap    -1.388290     6Ap    -0.817403
       7Ap    -0.701378     1App   -0.658825     8Ap    -0.654028
       2App   -0.576206     9Ap    -0.550405    10Ap    -0.403351

  @DF-RKS Final Energy:  -237.65729767433652

   => Energetics <=

    Nuclear Repulsion Energy =             64.3990861106166648
    One-Electron Energy =                -456.5632870821456208
    Two-Electron Energy =                 173.6415635257186239
    DFT Exchange-Correlation Energy =     -19.2354179677469475
    Empirical Dispersion Energy =           0.0000000000000000
    VV10 Nonlocal Energy =                  0.1007577392207357
    Total Energy =                       -237.6572976743365189

  Dipole Moment: [D]
     X:     0.0000      Y:    -0.0078      Z:     0.5764     Total:     0.5764

  Vibration                       7                   8                   9
  Freq [cm^-1]                 670.7564           1158.7853           1258.7252
  Irrep                           A1                  B2                  A1
  Reduced mass [u]             17.8053             13.7012             13.8048
  Force const [mDyne/A]         4.7199             10.8397             12.8867

  ==> Thermochemistry Components <==

  Entropy, S
    Electronic S            0.000 [cal/(mol K)]        0.000 [J/(mol K)]       0.00000000 [mEh/K] (multiplicity = 1)
    Translational S        37.652 [cal/(mol K)]      157.535 [J/(mol K)]       0.06000175 [mEh/K] (mol. weight = 49.9968 [u], P = 101325.00 [Pa])
    Rotational S           19.478 [cal/(mol K)]       81.496 [J/(mol K)]       0.03104013 [mEh/K] (symmetry no. = 2)
    Vibrational S           0.424 [cal/(mol K)]        1.774 [J/(mol K)]       0.00067587 [mEh/K]
  Total S                  57.554 [cal/(mol K)]      240.805 [J/(mol K)]       0.09171774 [mEh/K]
  Correction S              0.000 [cal/(mol K)]        0.000 [J/(mol K)]       0.00000000 [mEh/K]

  Constant volume heat capacity, Cv
    Electronic Cv           0.000 [cal/(mol K)]        0.000 [J/(mol K)]       0.00000000 [mEh/K]
    Translational Cv        2.981 [cal/(mol K)]       12.472 [J/(mol K)]       0.00475022 [mEh/K]
    Rotational Cv           2.981 [cal/(mol K)]       12.472 [J/(mol K)]       0.00475022 [mEh/K]
    Vibrational Cv          1.289 [cal/(mol K)]        5.394 [J/(mol K)]       0.00205439 [mEh/K]
  Total Cv                  7.251 [cal/(mol K)]       30.337 [J/(mol K)]       0.01155482 [mEh/K]
  Correction Cv             0.000 [cal/(mol K)]        0.000 [J/(mol K)]       0.00000000 [mEh/K]

  Constant pressure heat capacity, Cp
    Electronic Cp           0.000 [cal/(mol K)]        0.000 [J/(mol K)]       0.00000000 [mEh/K]
    Translational Cp        4.968 [cal/(mol K)]       20.786 [J/(mol K)]       0.00791703 [mEh/K]
    Rotational Cp           2.981 [cal/(mol K)]       12.472 [J/(mol K)]       0.00475022 [mEh/K]
    Vibrational Cp          1.289 [cal/(mol K)]        5.394 [J/(mol K)]       0.00205439 [mEh/K]
  Total Cp                  9.238 [cal/(mol K)]       38.652 [J/(mol K)]       0.01472163 [mEh/K]
  Correction Cp             0.000 [cal/(mol K)]        0.000 [J/(mol K)]       0.00000000 [mEh/K]

  ==> Thermochemistry Energy Analysis <==

  Raw electronic energy, E0
  Total E0, Electronic energy at well bottom at 0 [K]                 -237.65729831 [Eh]

  Zero-point energy, ZPE_vib = Sum_i nu_i / 2
    Electronic ZPE          0.000 [kcal/mol]        0.000 [kJ/mol]       0.00000000 [Eh]
    Translational ZPE       0.000 [kcal/mol]        0.000 [kJ/mol]       0.00000000 [Eh]
    Rotational ZPE          0.000 [kcal/mol]        0.000 [kJ/mol]       0.00000000 [Eh]
    Vibrational ZPE         4.415 [kcal/mol]       18.472 [kJ/mol]       0.00703559 [Eh]        1544.133 [cm^-1]
  Correction ZPE            4.415 [kcal/mol]       18.472 [kJ/mol]       0.00703559 [Eh]        1544.133 [cm^-1]
  Total ZPE, Electronic energy at 0 [K]                               -237.65026272 [Eh]

  Thermal Energy, E (includes ZPE)
    Electronic E            0.000 [kcal/mol]        0.000 [kJ/mol]       0.00000000 [Eh]
    Translational E         0.889 [kcal/mol]        3.718 [kJ/mol]       0.00141628 [Eh]
    Rotational E            0.889 [kcal/mol]        3.718 [kJ/mol]       0.00141628 [Eh]
    Vibrational E           4.514 [kcal/mol]       18.887 [kJ/mol]       0.00719355 [Eh]
  Correction E              6.291 [kcal/mol]       26.324 [kJ/mol]       0.01002611 [Eh]
  Total E, Electronic energy at  298.15 [K]                           -237.64727220 [Eh]

  Enthalpy, H_trans = E_trans + k_B * T
    Electronic H            0.000 [kcal/mol]        0.000 [kJ/mol]       0.00000000 [Eh]
    Translational H         1.481 [kcal/mol]        6.197 [kJ/mol]       0.00236046 [Eh]
    Rotational H            0.889 [kcal/mol]        3.718 [kJ/mol]       0.00141628 [Eh]
    Vibrational H           4.514 [kcal/mol]       18.887 [kJ/mol]       0.00719355 [Eh]
  Correction H              6.884 [kcal/mol]       28.802 [kJ/mol]       0.01097029 [Eh]
  Total H, Enthalpy at  298.15 [K]                                    -237.64632802 [Eh]

  Gibbs free energy, G = H - T * S
    Electronic G            0.000 [kcal/mol]        0.000 [kJ/mol]       0.00000000 [Eh]
    Translational G        -9.745 [kcal/mol]      -40.772 [kJ/mol]      -0.01552906 [Eh]
    Rotational G           -4.919 [kcal/mol]      -20.580 [kJ/mol]      -0.00783834 [Eh]
    Vibrational G           4.388 [kcal/mol]       18.358 [kJ/mol]       0.00699205 [Eh]
  Correction G            -10.276 [kcal/mol]      -42.993 [kJ/mol]      -0.01637535 [Eh]
  Total G, Free enthalpy at  298.15 [K]                               -237.67367366 [Eh]

*** Psi4 exiting successfully. Buy a developer a beer!
