                               Psi4 1.3.2 release

  ==> Input File <==

--------------------------------------------------------------------------
memory 144 GB

molecule {
0 1
Cl 0.0000000000 0.0000000000 0.0000000000
Cl 0.0000000000 0.0000000000 1.9965761200
}

set dynamic_level 1
set basis cc-pV(D+d)Z

optimize("wB97M-V")
frequencies("wB97M-V")
--------------------------------------------------------------------------

    Molecular point group: d2h
  Charge       = 0
  Multiplicity = 1
  Basis Set: CC-PV(D+D)Z
    Blend: CC-PV(D+D)Z
  Basis Set: (CC-PV(D+D)Z AUX)
    Blend: CC-PVDZ-JKFIT
  @DF-RKS Final Energy:  -920.32566465061518
    Total Energy =                       -920.3256646506150673
    Molecular point group: d2h
  Basis Set: CC-PV(D+D)Z
    Blend: CC-PV(D+D)Z
  Basis Set: (CC-PV(D+D)Z AUX)
    Blend: CC-PVDZ-JKFIT
  @DF-RKS Final Energy:  -920.32566822662443
    Total Energy =                       -920.3256682266244297
  Basis Set: CC-PV(D+D)Z
    Blend: CC-PV(D+D)Z
  Basis Set: (CC-PV(D+D)Z AUX)
    Blend: CC-PVDZ-JKFIT
  @DF-RKS Final Energy:  -920.32566075813315
    Total Energy =                       -920.3256607581331536
  Basis Set: CC-PV(D+D)Z
    Blend: CC-PV(D+D)Z
  Basis Set: (CC-PV(D+D)Z AUX)
    Blend: CC-PVDZ-JKFIT
  @DF-RKS Final Energy:  -920.32568376823872
    Total Energy =                       -920.3256837682386049
  @DF-RKS Final Energy:  -920.32568501050980
    Total Energy =                       -920.3256850105098010
  @DF-RKS Final Energy:  -920.32568221626195
    Total Energy =                       -920.3256822162619528
  @DF-RKS Final Energy:  -920.32568693295786
    Total Energy =                       -920.3256869329578649
  @DF-RKS Final Energy:  -920.32568680494990
    Total Energy =                       -920.3256868049498962
  @DF-RKS Final Energy:  -920.32568675536686
    Total Energy =                       -920.3256867553669736
  **** Optimization is complete! (in 3 steps) ****
    Final optimized geometry and variables:
  @DF-RKS Final Energy:  -920.32568693295843
    Total Energy =                       -920.3256869329584333
  @DF-RKS Final Energy:  -920.32568680495035
    Total Energy =                       -920.3256868049503510
  Basis Set: CC-PV(D+D)Z
    Blend: CC-PV(D+D)Z
  Basis Set: (CC-PV(D+D)Z AUX)
    Blend: CC-PVDZ-JKFIT
  @DF-RKS Final Energy:  -920.32568675536731
    Total Energy =                       -920.3256867553673146
  Basis Set: CC-PV(D+D)Z
    Blend: CC-PV(D+D)Z
  Basis Set: (CC-PV(D+D)Z AUX)
    Blend: CC-PVDZ-JKFIT
  @DF-RKS Final Energy:  -920.32568693295809
    Total Energy =                       -920.3256869329580923
  Multiplicity = 1
  Basis Set: CC-PV(D+D)Z
    Blend: CC-PV(D+D)Z
  Basis Set: (CC-PV(D+D)Z AUX)
    Blend: CC-PVDZ-JKFIT
  @DF-RKS Final Energy:  -920.32568680495035
    Total Energy =                       -920.3256868049502373
    Molecular point group: d2h

    Geometry (in Angstrom), charge = 0, multiplicity = 1:

       Center              X                  Y                   Z               Mass
    ------------   -----------------  -----------------  -----------------  -----------------
         CL           0.000000000000     0.000000000000    -1.001744984395    34.968852682000
         CL           0.000000000000     0.000000000000     1.001744984395    34.968852682000

  Charge       = 0
  Multiplicity = 1
  Basis Set: CC-PV(D+D)Z
    Blend: CC-PV(D+D)Z
  Basis Set: (CC-PV(D+D)Z AUX)
    Blend: CC-PVDZ-JKFIT

    Orbital Energies [Eh]
    ---------------------

    Doubly Occupied:

       1B1u -101.932821     1Ag  -101.932820     2B1u   -9.696684
       2Ag    -9.696638     3Ag    -7.404707     3B1u   -7.404587
       1B3g   -7.390530     1B2g   -7.390530     1B2u   -7.390529
       1B3u   -7.390529     4Ag    -1.058445     4B1u   -0.887419
       5Ag    -0.562781     2B2u   -0.510405     2B3u   -0.510405
       2B3g   -0.401749     2B2g   -0.401749

  @DF-RKS Final Energy:  -920.32568675536743

   => Energetics <=

    Nuclear Repulsion Energy =             76.3329072099335519
    One-Electron Energy =               -1422.0870351615808431
    Two-Electron Energy =                 468.9565043943988485
    DFT Exchange-Correlation Energy =     -43.6705038837299213
    Empirical Dispersion Energy =           0.0000000000000000
    VV10 Nonlocal Energy =                  0.1424406856108106
    Total Energy =                       -920.3256867553674283

  Dipole Moment: [D]
     X:     0.0000      Y:     0.0000      Z:     0.0000     Total:     0.0000

  Vibration                       6
  Freq [cm^-1]                 568.3421
  Irrep                           Ag
  Reduced mass [u]             34.9689
  Force const [mDyne/A]         6.6550

  ==> Thermochemistry Components <==

  Entropy, S
    Electronic S            0.000 [cal/(mol K)]        0.000 [J/(mol K)]       0.00000000 [mEh/K] (multiplicity = 1)
    Translational S        38.652 [cal/(mol K)]      161.721 [J/(mol K)]       0.06159614 [mEh/K] (mol. weight = 69.9377 [u], P = 101325.00 [Pa])
    Rotational S           14.045 [cal/(mol K)]       58.763 [J/(mol K)]       0.02238167 [mEh/K] (symmetry no. = 2)
    Vibrational S           0.507 [cal/(mol K)]        2.123 [J/(mol K)]       0.00080865 [mEh/K]
  Total S                  53.204 [cal/(mol K)]      222.607 [J/(mol K)]       0.08478646 [mEh/K]
  Correction S              0.000 [cal/(mol K)]        0.000 [J/(mol K)]       0.00000000 [mEh/K]

  Constant volume heat capacity, Cv
    Electronic Cv           0.000 [cal/(mol K)]        0.000 [J/(mol K)]       0.00000000 [mEh/K]
    Translational Cv        2.981 [cal/(mol K)]       12.472 [J/(mol K)]       0.00475022 [mEh/K]
    Rotational Cv           1.987 [cal/(mol K)]        8.314 [J/(mol K)]       0.00316681 [mEh/K]
    Vibrational Cv          1.100 [cal/(mol K)]        4.601 [J/(mol K)]       0.00175253 [mEh/K]
  Total Cv                  6.068 [cal/(mol K)]       25.387 [J/(mol K)]       0.00966956 [mEh/K]
  Correction Cv             0.000 [cal/(mol K)]        0.000 [J/(mol K)]       0.00000000 [mEh/K]

  Constant pressure heat capacity, Cp
    Electronic Cp           0.000 [cal/(mol K)]        0.000 [J/(mol K)]       0.00000000 [mEh/K]
    Translational Cp        4.968 [cal/(mol K)]       20.786 [J/(mol K)]       0.00791703 [mEh/K]
    Rotational Cp           1.987 [cal/(mol K)]        8.314 [J/(mol K)]       0.00316681 [mEh/K]
    Vibrational Cp          1.100 [cal/(mol K)]        4.601 [J/(mol K)]       0.00175253 [mEh/K]
  Total Cp                  8.055 [cal/(mol K)]       33.702 [J/(mol K)]       0.01283637 [mEh/K]
  Correction Cp             0.000 [cal/(mol K)]        0.000 [J/(mol K)]       0.00000000 [mEh/K]

  ==> Thermochemistry Energy Analysis <==

  Raw electronic energy, E0
  Total E0, Electronic energy at well bottom at 0 [K]                 -920.32568693 [Eh]

  Zero-point energy, ZPE_vib = Sum_i nu_i / 2
    Electronic ZPE          0.000 [kcal/mol]        0.000 [kJ/mol]       0.00000000 [Eh]
    Translational ZPE       0.000 [kcal/mol]        0.000 [kJ/mol]       0.00000000 [Eh]
    Rotational ZPE          0.000 [kcal/mol]        0.000 [kJ/mol]       0.00000000 [Eh]
    Vibrational ZPE         0.812 [kcal/mol]        3.399 [kJ/mol]       0.00129478 [Eh]         284.171 [cm^-1]
  Correction ZPE            0.812 [kcal/mol]        3.399 [kJ/mol]       0.00129478 [Eh]         284.171 [cm^-1]
  Total ZPE, Electronic energy at 0 [K]                               -920.32439215 [Eh]

  Thermal Energy, E (includes ZPE)
    Electronic E            0.000 [kcal/mol]        0.000 [kJ/mol]       0.00000000 [Eh]
    Translational E         0.889 [kcal/mol]        3.718 [kJ/mol]       0.00141628 [Eh]
    Rotational E            0.592 [kcal/mol]        2.479 [kJ/mol]       0.00094418 [Eh]
    Vibrational E           0.924 [kcal/mol]        3.867 [kJ/mol]       0.00147303 [Eh]
  Correction E              2.406 [kcal/mol]       10.065 [kJ/mol]       0.00383349 [Eh]
  Total E, Electronic energy at  298.15 [K]                           -920.32185345 [Eh]

  Enthalpy, H_trans = E_trans + k_B * T
    Electronic H            0.000 [kcal/mol]        0.000 [kJ/mol]       0.00000000 [Eh]
    Translational H         1.481 [kcal/mol]        6.197 [kJ/mol]       0.00236046 [Eh]
    Rotational H            0.592 [kcal/mol]        2.479 [kJ/mol]       0.00094418 [Eh]
    Vibrational H           0.924 [kcal/mol]        3.867 [kJ/mol]       0.00147303 [Eh]
  Correction H              2.998 [kcal/mol]       12.544 [kJ/mol]       0.00477767 [Eh]
  Total H, Enthalpy at  298.15 [K]                                    -920.32090926 [Eh]

  Gibbs free energy, G = H - T * S
    Electronic G            0.000 [kcal/mol]        0.000 [kJ/mol]       0.00000000 [Eh]
    Translational G       -10.043 [kcal/mol]      -42.020 [kJ/mol]      -0.01600443 [Eh]
    Rotational G           -3.595 [kcal/mol]      -15.041 [kJ/mol]      -0.00572891 [Eh]
    Vibrational G           0.773 [kcal/mol]        3.234 [kJ/mol]       0.00123193 [Eh]
  Correction G            -12.865 [kcal/mol]      -53.826 [kJ/mol]      -0.02050141 [Eh]
  Total G, Free enthalpy at  298.15 [K]                               -920.34618834 [Eh]

*** Psi4 exiting successfully. Buy a developer a beer!
