                               Psi4 1.3.2 release

  ==> Input File <==

--------------------------------------------------------------------------
memory 144 GB

molecule {
0 1
Cl 0.0000000000 0.0000000000 0.0000000000
C 0.0000000000 0.0000000000 1.6357056100
N 0.0000000000 0.0000000000 2.7976884200
}

set dynamic_level 1
set basis cc-pV(D+d)Z

optimize("wB97M-V")
frequencies("wB97M-V")
--------------------------------------------------------------------------

    Molecular point group: c2v
  Charge       = 0
  Multiplicity = 1
  Basis Set: CC-PV(D+D)Z
    Blend: CC-PV(D+D)Z
  Basis Set: (CC-PV(D+D)Z AUX)
    Blend: CC-PVDZ-JKFIT
  @DF-RKS Final Energy:  -552.98238047522693
    Total Energy =                       -552.9823804752268188
    Molecular point group: c2v
  Basis Set: CC-PV(D+D)Z
    Blend: CC-PV(D+D)Z
  Basis Set: (CC-PV(D+D)Z AUX)
    Blend: CC-PVDZ-JKFIT
  @DF-RKS Final Energy:  -552.98238328797220
    Total Energy =                       -552.9823832879723113
  Basis Set: CC-PV(D+D)Z
    Blend: CC-PV(D+D)Z
  Basis Set: (CC-PV(D+D)Z AUX)
    Blend: CC-PVDZ-JKFIT
  @DF-RKS Final Energy:  -552.98237705723091
    Total Energy =                       -552.9823770572309058
  Basis Set: CC-PV(D+D)Z
    Blend: CC-PV(D+D)Z
  Basis Set: (CC-PV(D+D)Z AUX)
    Blend: CC-PVDZ-JKFIT
  @DF-RKS Final Energy:  -552.98236644706128
    Total Energy =                       -552.9823664470612812
  @DF-RKS Final Energy:  -552.98238928836838
    Total Energy =                       -552.9823892883683811
  @DF-RKS Final Energy:  -552.98239654694999
    Total Energy =                       -552.9823965469499853
  @DF-RKS Final Energy:  -552.98239694435927
    Total Energy =                       -552.9823969443592659
  @DF-RKS Final Energy:  -552.98239555289729
    Total Energy =                       -552.9823955528971737
  @DF-RKS Final Energy:  -552.98239320098560
    Total Energy =                       -552.9823932009854843
  @DF-RKS Final Energy:  -552.98239462325171
    Total Energy =                       -552.9823946232518210
  @DF-RKS Final Energy:  -552.98239695399809
    Total Energy =                       -552.9823969539980908
  @DF-RKS Final Energy:  -552.98239670517978
    Total Energy =                       -552.9823967051798945
  @DF-RKS Final Energy:  -552.98239660894217
    Total Energy =                       -552.9823966089421674
  @DF-RKS Final Energy:  -552.98239437671918
    Total Energy =                       -552.9823943767191849
  @DF-RKS Final Energy:  -552.98239426103419
    Total Energy =                       -552.9823942610339600
  **** Optimization is complete! (in 3 steps) ****
    Final optimized geometry and variables:
  @DF-RKS Final Energy:  -552.98239695400184
    Total Energy =                       -552.9823969540018425
  @DF-RKS Final Energy:  -552.98239670518046
    Total Energy =                       -552.9823967051804630
  @DF-RKS Final Energy:  -552.98239660884497
    Total Energy =                       -552.9823966088449652
  @DF-RKS Final Energy:  -552.98239437685993
    Total Energy =                       -552.9823943768600429
  @DF-RKS Final Energy:  -552.98239426093335
    Total Energy =                       -552.9823942609332335
  @DF-RKS Final Energy:  -552.98239695400230
    Total Energy =                       -552.9823969540022972
  @DF-RKS Final Energy:  -552.98239670518046
    Total Energy =                       -552.9823967051803493
  @DF-RKS Final Energy:  -552.98239660884508
    Total Energy =                       -552.9823966088450788
  @DF-RKS Final Energy:  -552.98239437685959
    Total Energy =                       -552.9823943768597019
  @DF-RKS Final Energy:  -552.98239426093357
    Total Energy =                       -552.9823942609336882
  Basis Set: CC-PV(D+D)Z
    Blend: CC-PV(D+D)Z
  Basis Set: (CC-PV(D+D)Z AUX)
    Blend: CC-PVDZ-JKFIT
  @DF-RKS Final Energy:  -552.98239436505230
    Total Energy =                       -552.9823943650524143
  Basis Set: CC-PV(D+D)Z
    Blend: CC-PV(D+D)Z
  Basis Set: (CC-PV(D+D)Z AUX)
    Blend: CC-PVDZ-JKFIT
  @DF-RKS Final Energy:  -552.98239457634952
    Total Energy =                       -552.9823945763494066
  Multiplicity = 1
  Basis Set: CC-PV(D+D)Z
    Blend: CC-PV(D+D)Z
  Basis Set: (CC-PV(D+D)Z AUX)
    Blend: CC-PVDZ-JKFIT
  @DF-RKS Final Energy:  -552.98239687841158
    Total Energy =                       -552.9823968784115777
    Molecular point group: cs

    Geometry (in Angstrom), charge = 0, multiplicity = 1:

       Center              X                  Y                   Z               Mass
    ------------   -----------------  -----------------  -----------------  -----------------
         CL           0.000000000000    -0.000093385837    -0.965537224734    34.968852682000
         C            0.000000000000     0.000656693876     0.673752859190    12.000000000000
         N            0.000000000000    -0.000329551277     1.833789827312    14.003074004430

  Charge       = 0
  Multiplicity = 1
  Basis Set: CC-PV(D+D)Z
    Blend: CC-PV(D+D)Z
  Basis Set: (CC-PV(D+D)Z AUX)
    Blend: CC-PVDZ-JKFIT

    Orbital Energies [Eh]
    ---------------------

    Doubly Occupied:

       1Ap  -101.966109     2Ap   -14.550742     3Ap   -10.460917
       4Ap    -9.730681     5Ap    -7.436497     1App   -7.425601
       6Ap    -7.425601     7Ap    -1.087935     8Ap    -1.027547
       9Ap    -0.681671     2App   -0.544868    10Ap    -0.544868
      11Ap    -0.496958     3App   -0.429474    12Ap    -0.429474

  @DF-RKS Final Energy:  -552.98239687832574

   => Energetics <=

    Nuclear Repulsion Energy =             74.5811756892347546
    One-Electron Energy =                -907.4815214457776165
    Two-Electron Energy =                 310.4192996870894490
    DFT Exchange-Correlation Energy =     -30.6258115008079344
    Empirical Dispersion Energy =           0.0000000000000000
    VV10 Nonlocal Energy =                  0.1244606919354840
    Total Energy =                       -552.9823968783258579

  Dipole Moment: [D]
     X:     0.0000      Y:     0.0007      Z:    -2.6944     Total:     2.6944

  Vibration                       6                   7                   8
  Freq [cm^-1]                 399.7454            399.9723            763.3556
  Irrep                           B1                  B2                  A1
  Reduced mass [u]             12.7617             12.7617             17.9686
  Force const [mDyne/A]         1.2015              1.2029              6.1691

  Vibration                       9
  Freq [cm^-1]                2369.7354
  Irrep                           A1
  Reduced mass [u]             12.7409
  Force const [mDyne/A]        42.1550

  ==> Thermochemistry Components <==

  Entropy, S
    Electronic S            0.000 [cal/(mol K)]        0.000 [J/(mol K)]       0.00000000 [mEh/K] (multiplicity = 1)
    Translational S        38.243 [cal/(mol K)]      160.010 [J/(mol K)]       0.06094445 [mEh/K] (mol. weight = 60.9719 [u], P = 101325.00 [Pa])
    Rotational S           15.805 [cal/(mol K)]       66.127 [J/(mol K)]       0.02518646 [mEh/K] (symmetry no. = 1)
    Vibrational S           2.166 [cal/(mol K)]        9.062 [J/(mol K)]       0.00345154 [mEh/K]
  Total S                  56.214 [cal/(mol K)]      235.199 [J/(mol K)]       0.08958245 [mEh/K]
  Correction S              0.000 [cal/(mol K)]        0.000 [J/(mol K)]       0.00000000 [mEh/K]

  Constant volume heat capacity, Cv
    Electronic Cv           0.000 [cal/(mol K)]        0.000 [J/(mol K)]       0.00000000 [mEh/K]
    Translational Cv        2.981 [cal/(mol K)]       12.472 [J/(mol K)]       0.00475022 [mEh/K]
    Rotational Cv           1.987 [cal/(mol K)]        8.314 [J/(mol K)]       0.00316681 [mEh/K]
    Vibrational Cv          3.657 [cal/(mol K)]       15.299 [J/(mol K)]       0.00582727 [mEh/K]
  Total Cv                  8.625 [cal/(mol K)]       36.086 [J/(mol K)]       0.01374430 [mEh/K]
  Correction Cv             0.000 [cal/(mol K)]        0.000 [J/(mol K)]       0.00000000 [mEh/K]

  Constant pressure heat capacity, Cp
    Electronic Cp           0.000 [cal/(mol K)]        0.000 [J/(mol K)]       0.00000000 [mEh/K]
    Translational Cp        4.968 [cal/(mol K)]       20.786 [J/(mol K)]       0.00791703 [mEh/K]
    Rotational Cp           1.987 [cal/(mol K)]        8.314 [J/(mol K)]       0.00316681 [mEh/K]
    Vibrational Cp          3.657 [cal/(mol K)]       15.299 [J/(mol K)]       0.00582727 [mEh/K]
  Total Cp                 10.612 [cal/(mol K)]       44.400 [J/(mol K)]       0.01691111 [mEh/K]
  Correction Cp             0.000 [cal/(mol K)]        0.000 [J/(mol K)]       0.00000000 [mEh/K]

  ==> Thermochemistry Energy Analysis <==

  Raw electronic energy, E0
  Total E0, Electronic energy at well bottom at 0 [K]                 -552.98239695 [Eh]

  Zero-point energy, ZPE_vib = Sum_i nu_i / 2
    Electronic ZPE          0.000 [kcal/mol]        0.000 [kJ/mol]       0.00000000 [Eh]
    Translational ZPE       0.000 [kcal/mol]        0.000 [kJ/mol]       0.00000000 [Eh]
    Rotational ZPE          0.000 [kcal/mol]        0.000 [kJ/mol]       0.00000000 [Eh]
    Vibrational ZPE         5.622 [kcal/mol]       23.523 [kJ/mol]       0.00895960 [Eh]        1966.404 [cm^-1]
  Correction ZPE            5.622 [kcal/mol]       23.523 [kJ/mol]       0.00895960 [Eh]        1966.404 [cm^-1]
  Total ZPE, Electronic energy at 0 [K]                               -552.97343736 [Eh]

  Thermal Energy, E (includes ZPE)
    Electronic E            0.000 [kcal/mol]        0.000 [kJ/mol]       0.00000000 [Eh]
    Translational E         0.889 [kcal/mol]        3.718 [kJ/mol]       0.00141628 [Eh]
    Rotational E            0.592 [kcal/mol]        2.479 [kJ/mol]       0.00094418 [Eh]
    Vibrational E           6.067 [kcal/mol]       25.384 [kJ/mol]       0.00966836 [Eh]
  Correction E              7.548 [kcal/mol]       31.582 [kJ/mol]       0.01202882 [Eh]
  Total E, Electronic energy at  298.15 [K]                           -552.97036814 [Eh]

  Enthalpy, H_trans = E_trans + k_B * T
    Electronic H            0.000 [kcal/mol]        0.000 [kJ/mol]       0.00000000 [Eh]
    Translational H         1.481 [kcal/mol]        6.197 [kJ/mol]       0.00236046 [Eh]
    Rotational H            0.592 [kcal/mol]        2.479 [kJ/mol]       0.00094418 [Eh]
    Vibrational H           6.067 [kcal/mol]       25.384 [kJ/mol]       0.00966836 [Eh]
  Correction H              8.141 [kcal/mol]       34.061 [kJ/mol]       0.01297300 [Eh]
  Total H, Enthalpy at  298.15 [K]                                    -552.96942395 [Eh]

  Gibbs free energy, G = H - T * S
    Electronic G            0.000 [kcal/mol]        0.000 [kJ/mol]       0.00000000 [Eh]
    Translational G        -9.921 [kcal/mol]      -41.509 [kJ/mol]      -0.01581013 [Eh]
    Rotational G           -4.120 [kcal/mol]      -17.237 [kJ/mol]      -0.00656516 [Eh]
    Vibrational G           5.421 [kcal/mol]       22.682 [kJ/mol]       0.00863928 [Eh]
  Correction G             -8.619 [kcal/mol]      -36.064 [kJ/mol]      -0.01373601 [Eh]
  Total G, Free enthalpy at  298.15 [K]                               -552.99613296 [Eh]

*** Psi4 exiting successfully. Buy a developer a beer!
