                               Psi4 1.3.2 release

  ==> Input File <==

--------------------------------------------------------------------------
memory 144 GB

molecule {
0 1
Cl 0.0000000000 0.0000000000 0.0000000000
F 0.0000000000 0.0000000000 1.6318233300
}

set dynamic_level 1
set basis cc-pV(D+d)Z

optimize("wB97M-V")
frequencies("wB97M-V")
--------------------------------------------------------------------------

    Molecular point group: c2v
  Charge       = 0
  Multiplicity = 1
  Basis Set: CC-PV(D+D)Z
    Blend: CC-PV(D+D)Z
  Basis Set: (CC-PV(D+D)Z AUX)
    Blend: CC-PVDZ-JKFIT
  @DF-RKS Final Energy:  -559.91335012298180
    Total Energy =                       -559.9133501229816829
    Molecular point group: c2v
  Basis Set: CC-PV(D+D)Z
    Blend: CC-PV(D+D)Z
  Basis Set: (CC-PV(D+D)Z AUX)
    Blend: CC-PVDZ-JKFIT
  @DF-RKS Final Energy:  -559.91336651032111
    Total Energy =                       -559.9133665103208841
  Basis Set: CC-PV(D+D)Z
    Blend: CC-PV(D+D)Z
  Basis Set: (CC-PV(D+D)Z AUX)
    Blend: CC-PVDZ-JKFIT
  @DF-RKS Final Energy:  -559.91333306087267
    Total Energy =                       -559.9133330608727874
  Basis Set: CC-PV(D+D)Z
    Blend: CC-PV(D+D)Z
  Basis Set: (CC-PV(D+D)Z AUX)
    Blend: CC-PVDZ-JKFIT
  @DF-RKS Final Energy:  -559.91354464436256
    Total Energy =                       -559.9135446443624460
  @DF-RKS Final Energy:  -559.91354925924838
    Total Energy =                       -559.9135492592483843
  @DF-RKS Final Energy:  -559.91353939911994
    Total Energy =                       -559.9135393991199408
  @DF-RKS Final Energy:  -559.91356406174327
    Total Energy =                       -559.9135640617432728
  @DF-RKS Final Energy:  -559.91356398824712
    Total Energy =                       -559.9135639882471196
  @DF-RKS Final Energy:  -559.91356352241951
    Total Energy =                       -559.9135635224196221
  **** Optimization is complete! (in 3 steps) ****
    Final optimized geometry and variables:
  @DF-RKS Final Energy:  -559.91356406174373
    Total Energy =                       -559.9135640617437275
  @DF-RKS Final Energy:  -559.91356398825178
    Total Energy =                       -559.9135639882516671
  Basis Set: CC-PV(D+D)Z
    Blend: CC-PV(D+D)Z
  Basis Set: (CC-PV(D+D)Z AUX)
    Blend: CC-PVDZ-JKFIT
  @DF-RKS Final Energy:  -559.91356352241951
    Total Energy =                       -559.9135635224193948
  Basis Set: CC-PV(D+D)Z
    Blend: CC-PV(D+D)Z
  Basis Set: (CC-PV(D+D)Z AUX)
    Blend: CC-PVDZ-JKFIT
  @DF-RKS Final Energy:  -559.91356406174327
    Total Energy =                       -559.9135640617433864
  Multiplicity = 1
  Basis Set: CC-PV(D+D)Z
    Blend: CC-PV(D+D)Z
  Basis Set: (CC-PV(D+D)Z AUX)
    Blend: CC-PVDZ-JKFIT
  @DF-RKS Final Energy:  -559.91356398825201
    Total Energy =                       -559.9135639882521218
    Molecular point group: c2v

    Geometry (in Angstrom), charge = 0, multiplicity = 1:

       Center              X                  Y                   Z               Mass
    ------------   -----------------  -----------------  -----------------  -----------------
         CL           0.000000000000     0.000000000000    -0.580999608821    34.968852682000
         F            0.000000000000     0.000000000000     1.069399862459    18.998403162730

  Charge       = 0
  Multiplicity = 1
  Basis Set: CC-PV(D+D)Z
    Blend: CC-PV(D+D)Z
  Basis Set: (CC-PV(D+D)Z AUX)
    Blend: CC-PVDZ-JKFIT

    Orbital Energies [Eh]
    ---------------------

    Doubly Occupied:

       1A1  -101.959828     2A1   -24.962220     3A1    -9.720613
       4A1    -7.431016     1B2    -7.413519     1B1    -7.413519
       5A1    -1.360971     6A1    -0.954177     7A1    -0.623167
       2B1    -0.583365     2B2    -0.583365     3B1    -0.427891
       3B2    -0.427891

  @DF-RKS Final Energy:  -559.91356352241962

   => Energetics <=

    Nuclear Repulsion Energy =             49.0572825800063939
    One-Electron Energy =                -871.7402545259797080
    Two-Electron Energy =                 292.1929769528193219
    DFT Exchange-Correlation Energy =     -29.5335799049533989
    Empirical Dispersion Energy =           0.0000000000000000
    VV10 Nonlocal Energy =                  0.1100113756877806
    Total Energy =                       -559.9135635224196221

  Dipole Moment: [D]
     X:     0.0000      Y:     0.0000      Z:    -1.1251     Total:     1.1251

  Vibration                       6
  Freq [cm^-1]                 804.8203
  Irrep                           A1
  Reduced mass [u]             22.6381
  Force const [mDyne/A]         8.6395

  ==> Thermochemistry Components <==

  Entropy, S
    Electronic S            0.000 [cal/(mol K)]        0.000 [J/(mol K)]       0.00000000 [mEh/K] (multiplicity = 1)
    Translational S        37.879 [cal/(mol K)]      158.488 [J/(mol K)]       0.06036475 [mEh/K] (mol. weight = 53.9673 [u], P = 101325.00 [Pa])
    Rotational S           13.955 [cal/(mol K)]       58.387 [J/(mol K)]       0.02223856 [mEh/K] (symmetry no. = 1)
    Vibrational S           0.203 [cal/(mol K)]        0.851 [J/(mol K)]       0.00032417 [mEh/K]
  Total S                  52.038 [cal/(mol K)]      217.726 [J/(mol K)]       0.08292747 [mEh/K]
  Correction S              0.000 [cal/(mol K)]        0.000 [J/(mol K)]       0.00000000 [mEh/K]

  Constant volume heat capacity, Cv
    Electronic Cv           0.000 [cal/(mol K)]        0.000 [J/(mol K)]       0.00000000 [mEh/K]
    Translational Cv        2.981 [cal/(mol K)]       12.472 [J/(mol K)]       0.00475022 [mEh/K]
    Rotational Cv           1.987 [cal/(mol K)]        8.314 [J/(mol K)]       0.00316681 [mEh/K]
    Vibrational Cv          0.643 [cal/(mol K)]        2.690 [J/(mol K)]       0.00102442 [mEh/K]
  Total Cv                  5.611 [cal/(mol K)]       23.476 [J/(mol K)]       0.00894144 [mEh/K]
  Correction Cv             0.000 [cal/(mol K)]        0.000 [J/(mol K)]       0.00000000 [mEh/K]

  Constant pressure heat capacity, Cp
    Electronic Cp           0.000 [cal/(mol K)]        0.000 [J/(mol K)]       0.00000000 [mEh/K]
    Translational Cp        4.968 [cal/(mol K)]       20.786 [J/(mol K)]       0.00791703 [mEh/K]
    Rotational Cp           1.987 [cal/(mol K)]        8.314 [J/(mol K)]       0.00316681 [mEh/K]
    Vibrational Cp          0.643 [cal/(mol K)]        2.690 [J/(mol K)]       0.00102442 [mEh/K]
  Total Cp                  7.598 [cal/(mol K)]       31.790 [J/(mol K)]       0.01210825 [mEh/K]
  Correction Cp             0.000 [cal/(mol K)]        0.000 [J/(mol K)]       0.00000000 [mEh/K]

  ==> Thermochemistry Energy Analysis <==

  Raw electronic energy, E0
  Total E0, Electronic energy at well bottom at 0 [K]                 -559.91356406 [Eh]

  Zero-point energy, ZPE_vib = Sum_i nu_i / 2
    Electronic ZPE          0.000 [kcal/mol]        0.000 [kJ/mol]       0.00000000 [Eh]
    Translational ZPE       0.000 [kcal/mol]        0.000 [kJ/mol]       0.00000000 [Eh]
    Rotational ZPE          0.000 [kcal/mol]        0.000 [kJ/mol]       0.00000000 [Eh]
    Vibrational ZPE         1.151 [kcal/mol]        4.814 [kJ/mol]       0.00183352 [Eh]         402.410 [cm^-1]
  Correction ZPE            1.151 [kcal/mol]        4.814 [kJ/mol]       0.00183352 [Eh]         402.410 [cm^-1]
  Total ZPE, Electronic energy at 0 [K]                               -559.91173055 [Eh]

  Thermal Energy, E (includes ZPE)
    Electronic E            0.000 [kcal/mol]        0.000 [kJ/mol]       0.00000000 [Eh]
    Translational E         0.889 [kcal/mol]        3.718 [kJ/mol]       0.00141628 [Eh]
    Rotational E            0.592 [kcal/mol]        2.479 [kJ/mol]       0.00094418 [Eh]
    Vibrational E           1.199 [kcal/mol]        5.016 [kJ/mol]       0.00191054 [Eh]
  Correction E              2.680 [kcal/mol]       11.214 [kJ/mol]       0.00427100 [Eh]
  Total E, Electronic energy at  298.15 [K]                           -559.90929306 [Eh]

  Enthalpy, H_trans = E_trans + k_B * T
    Electronic H            0.000 [kcal/mol]        0.000 [kJ/mol]       0.00000000 [Eh]
    Translational H         1.481 [kcal/mol]        6.197 [kJ/mol]       0.00236046 [Eh]
    Rotational H            0.592 [kcal/mol]        2.479 [kJ/mol]       0.00094418 [Eh]
    Vibrational H           1.199 [kcal/mol]        5.016 [kJ/mol]       0.00191054 [Eh]
  Correction H              3.273 [kcal/mol]       13.692 [kJ/mol]       0.00521519 [Eh]
  Total H, Enthalpy at  298.15 [K]                                    -559.90834888 [Eh]

  Gibbs free energy, G = H - T * S
    Electronic G            0.000 [kcal/mol]        0.000 [kJ/mol]       0.00000000 [Eh]
    Translational G        -9.813 [kcal/mol]      -41.056 [kJ/mol]      -0.01563729 [Eh]
    Rotational G           -3.568 [kcal/mol]      -14.929 [kJ/mol]      -0.00568624 [Eh]
    Vibrational G           1.138 [kcal/mol]        4.762 [kJ/mol]       0.00181389 [Eh]
  Correction G            -12.242 [kcal/mol]      -51.223 [kJ/mol]      -0.01950964 [Eh]
  Total G, Free enthalpy at  298.15 [K]                               -559.93307370 [Eh]

*** Psi4 exiting successfully. Buy a developer a beer!
