                               Psi4 1.3.2 release

  ==> Input File <==

--------------------------------------------------------------------------
memory 144 GB

molecule {
0 1
C 0.0000000000 0.0000000000 0.0000000000
O 0.0000000000 0.0000000000 1.1626000000
O 0.0000000000 0.0000000000 -1.1626000000
}

set dynamic_level 1
set basis cc-pV(D+d)Z

optimize("wB97M-V")
frequencies("wB97M-V")
--------------------------------------------------------------------------

    Molecular point group: d2h
  Charge       = 0
  Multiplicity = 1
  Basis Set: CC-PV(D+D)Z
    Blend: CC-PV(D+D)Z
  Basis Set: (CC-PV(D+D)Z AUX)
    Blend: CC-PVDZ-JKFIT
  @DF-RKS Final Energy:  -188.55467474488731
    Total Energy =                       -188.5546747448873077
    Molecular point group: d2h
  Basis Set: CC-PV(D+D)Z
    Blend: CC-PV(D+D)Z
  Basis Set: (CC-PV(D+D)Z AUX)
    Blend: CC-PVDZ-JKFIT
  @DF-RKS Final Energy:  -188.55466535564281
    Total Energy =                       -188.5546653556428112
  Basis Set: CC-PV(D+D)Z
    Blend: CC-PV(D+D)Z
  Basis Set: (CC-PV(D+D)Z AUX)
    Blend: CC-PVDZ-JKFIT
  @DF-RKS Final Energy:  -188.55468228568202
    Total Energy =                       -188.5546822856820199
  Basis Set: CC-PV(D+D)Z
    Blend: CC-PV(D+D)Z
  Basis Set: (CC-PV(D+D)Z AUX)
    Blend: CC-PVDZ-JKFIT
  @DF-RKS Final Energy:  -188.55469412795884
    Total Energy =                       -188.5546941279588395
  @DF-RKS Final Energy:  -188.55469263457022
    Total Energy =                       -188.5546926345702161
  @DF-RKS Final Energy:  -188.55469379848418
    Total Energy =                       -188.5546937984842089
  @DF-RKS Final Energy:  -188.55469422044231
    Total Energy =                       -188.5546942204423431
  @DF-RKS Final Energy:  -188.55469330565975
    Total Energy =                       -188.5546933056597254
  @DF-RKS Final Energy:  -188.55469331422148
    Total Energy =                       -188.5546933142214527
  **** Optimization is complete! (in 3 steps) ****
    Final optimized geometry and variables:
  @DF-RKS Final Energy:  -188.55469422043564
    Total Energy =                       -188.5546942204356355
  @DF-RKS Final Energy:  -188.55469330565981
    Total Energy =                       -188.5546933056598107
  @DF-RKS Final Energy:  -188.55469331422145
    Total Energy =                       -188.5546933142214527
  @DF-RKS Final Energy:  -188.55469422043566
    Total Energy =                       -188.5546942204356640
  @DF-RKS Final Energy:  -188.55469330565973
    Total Energy =                       -188.5546933056597254
  Basis Set: CC-PV(D+D)Z
    Blend: CC-PV(D+D)Z
  Basis Set: (CC-PV(D+D)Z AUX)
    Blend: CC-PVDZ-JKFIT
  @DF-RKS Final Energy:  -188.55469331422154
    Total Energy =                       -188.5546933142215096
  Basis Set: CC-PV(D+D)Z
    Blend: CC-PV(D+D)Z
  Basis Set: (CC-PV(D+D)Z AUX)
    Blend: CC-PVDZ-JKFIT
  @DF-RKS Final Energy:  -188.55469140353748
    Total Energy =                       -188.5546914035374471
  Multiplicity = 1
  Basis Set: CC-PV(D+D)Z
    Blend: CC-PV(D+D)Z
  Basis Set: (CC-PV(D+D)Z AUX)
    Blend: CC-PVDZ-JKFIT
  @DF-RKS Final Energy:  -188.55469401145621
    Total Energy =                       -188.5546940114562062
    Molecular point group: c2v

    Geometry (in Angstrom), charge = 0, multiplicity = 1:

       Center              X                  Y                   Z               Mass
    ------------   -----------------  -----------------  -----------------  -----------------
         C           -0.000651343880     0.000000000000     0.000000000000    12.000000000000
         O            0.000244331612     0.000000000000     1.164757325292    15.994914619570
         O            0.000244331612     0.000000000000    -1.164757325292    15.994914619570

  Charge       = 0
  Multiplicity = 1
  Basis Set: CC-PV(D+D)Z
    Blend: CC-PV(D+D)Z
  Basis Set: (CC-PV(D+D)Z AUX)
    Blend: CC-PVDZ-JKFIT

    Orbital Energies [Eh]
    ---------------------

    Doubly Occupied:

       1B2   -19.425222     1A1   -19.425201     2A1   -10.551909
       3A1    -1.287507     2B2    -1.243940     4A1    -0.673154
       3B2    -0.623646     5A1    -0.623017     1B1    -0.623017
       1A2    -0.464881     4B2    -0.464881

  @DF-RKS Final Energy:  -188.55469401150705

   => Energetics <=

    Nuclear Repulsion Energy =             58.1534595016745470
    One-Electron Energy =                -372.3262493351560352
    Two-Electron Energy =                 141.9118448972501483
    DFT Exchange-Correlation Energy =     -16.3855799913446099
    Empirical Dispersion Energy =           0.0000000000000000
    VV10 Nonlocal Energy =                  0.0918309160688867
    Total Energy =                       -188.5546940115070527

  Dipole Moment: [D]
     X:    -0.0023      Y:     0.0000      Z:     0.0000     Total:     0.0023

  Vibration                       6                   7                   8
  Freq [cm^-1]                 664.5815            664.6623           1387.3565
  Irrep                          B3u                 B2u                  Ag
  Reduced mass [u]             12.8774             12.8774             15.9949
  Force const [mDyne/A]         3.3510              3.3518             18.1388

  Vibration                       9
  Freq [cm^-1]                2440.2529
  Irrep                          B1u
  Reduced mass [u]             12.8774
  Force const [mDyne/A]        45.1801

  ==> Thermochemistry Components <==

  Entropy, S
    Electronic S            0.000 [cal/(mol K)]        0.000 [J/(mol K)]       0.00000000 [mEh/K] (multiplicity = 1)
    Translational S        37.270 [cal/(mol K)]      155.938 [J/(mol K)]       0.05939371 [mEh/K] (mol. weight = 43.9898 [u], P = 101325.00 [Pa])
    Rotational S           13.088 [cal/(mol K)]       54.761 [J/(mol K)]       0.02085755 [mEh/K] (symmetry no. = 2)
    Vibrational S           0.721 [cal/(mol K)]        3.016 [J/(mol K)]       0.00114884 [mEh/K]
  Total S                  51.079 [cal/(mol K)]      213.716 [J/(mol K)]       0.08140010 [mEh/K]
  Correction S              0.000 [cal/(mol K)]        0.000 [J/(mol K)]       0.00000000 [mEh/K]

  Constant volume heat capacity, Cv
    Electronic Cv           0.000 [cal/(mol K)]        0.000 [J/(mol K)]       0.00000000 [mEh/K]
    Translational Cv        2.981 [cal/(mol K)]       12.472 [J/(mol K)]       0.00475022 [mEh/K]
    Rotational Cv           1.987 [cal/(mol K)]        8.314 [J/(mol K)]       0.00316681 [mEh/K]
    Vibrational Cv          1.909 [cal/(mol K)]        7.989 [J/(mol K)]       0.00304298 [mEh/K]
  Total Cv                  6.878 [cal/(mol K)]       28.775 [J/(mol K)]       0.01096001 [mEh/K]
  Correction Cv             0.000 [cal/(mol K)]        0.000 [J/(mol K)]       0.00000000 [mEh/K]

  Constant pressure heat capacity, Cp
    Electronic Cp           0.000 [cal/(mol K)]        0.000 [J/(mol K)]       0.00000000 [mEh/K]
    Translational Cp        4.968 [cal/(mol K)]       20.786 [J/(mol K)]       0.00791703 [mEh/K]
    Rotational Cp           1.987 [cal/(mol K)]        8.314 [J/(mol K)]       0.00316681 [mEh/K]
    Vibrational Cp          1.909 [cal/(mol K)]        7.989 [J/(mol K)]       0.00304298 [mEh/K]
  Total Cp                  8.865 [cal/(mol K)]       37.090 [J/(mol K)]       0.01412682 [mEh/K]
  Correction Cp             0.000 [cal/(mol K)]        0.000 [J/(mol K)]       0.00000000 [mEh/K]

  ==> Thermochemistry Energy Analysis <==

  Raw electronic energy, E0
  Total E0, Electronic energy at well bottom at 0 [K]                 -188.55469422 [Eh]

  Zero-point energy, ZPE_vib = Sum_i nu_i / 2
    Electronic ZPE          0.000 [kcal/mol]        0.000 [kJ/mol]       0.00000000 [Eh]
    Translational ZPE       0.000 [kcal/mol]        0.000 [kJ/mol]       0.00000000 [Eh]
    Rotational ZPE          0.000 [kcal/mol]        0.000 [kJ/mol]       0.00000000 [Eh]
    Vibrational ZPE         7.372 [kcal/mol]       30.845 [kJ/mol]       0.01174818 [Eh]        2578.427 [cm^-1]
  Correction ZPE            7.372 [kcal/mol]       30.845 [kJ/mol]       0.01174818 [Eh]        2578.427 [cm^-1]
  Total ZPE, Electronic energy at 0 [K]                               -188.54294604 [Eh]

  Thermal Energy, E (includes ZPE)
    Electronic E            0.000 [kcal/mol]        0.000 [kJ/mol]       0.00000000 [Eh]
    Translational E         0.889 [kcal/mol]        3.718 [kJ/mol]       0.00141628 [Eh]
    Rotational E            0.592 [kcal/mol]        2.479 [kJ/mol]       0.00094418 [Eh]
    Vibrational E           7.537 [kcal/mol]       31.536 [kJ/mol]       0.01201152 [Eh]
  Correction E              9.019 [kcal/mol]       37.734 [kJ/mol]       0.01437198 [Eh]
  Total E, Electronic energy at  298.15 [K]                           -188.54032224 [Eh]

  Enthalpy, H_trans = E_trans + k_B * T
    Electronic H            0.000 [kcal/mol]        0.000 [kJ/mol]       0.00000000 [Eh]
    Translational H         1.481 [kcal/mol]        6.197 [kJ/mol]       0.00236046 [Eh]
    Rotational H            0.592 [kcal/mol]        2.479 [kJ/mol]       0.00094418 [Eh]
    Vibrational H           7.537 [kcal/mol]       31.536 [kJ/mol]       0.01201152 [Eh]
  Correction H              9.611 [kcal/mol]       40.213 [kJ/mol]       0.01531616 [Eh]
  Total H, Enthalpy at  298.15 [K]                                    -188.53937806 [Eh]

  Gibbs free energy, G = H - T * S
    Electronic G            0.000 [kcal/mol]        0.000 [kJ/mol]       0.00000000 [Eh]
    Translational G        -9.631 [kcal/mol]      -40.296 [kJ/mol]      -0.01534777 [Eh]
    Rotational G           -3.310 [kcal/mol]      -13.848 [kJ/mol]      -0.00527449 [Eh]
    Vibrational G           7.322 [kcal/mol]       30.637 [kJ/mol]       0.01166899 [Eh]
  Correction G             -5.618 [kcal/mol]      -23.507 [kJ/mol]      -0.00895328 [Eh]
  Total G, Free enthalpy at  298.15 [K]                               -188.56364750 [Eh]

*** Psi4 exiting successfully. Buy a developer a beer!
