                               Psi4 1.3.2 release

  ==> Input File <==

--------------------------------------------------------------------------
memory 144 GB

molecule {
0 1
C 0.0000000000 0.0000000000 0.0000000000
O 0.0000000000 0.0000000000 1.1314000000
}

set dynamic_level 1
set basis cc-pV(D+d)Z

optimize("wB97M-V")
frequencies("wB97M-V")
--------------------------------------------------------------------------

    Molecular point group: c2v
  Charge       = 0
  Multiplicity = 1
  Basis Set: CC-PV(D+D)Z
    Blend: CC-PV(D+D)Z
  Basis Set: (CC-PV(D+D)Z AUX)
    Blend: CC-PVDZ-JKFIT
  @DF-RKS Final Energy:  -113.29944543225457
    Total Energy =                       -113.2994454322545863
    Molecular point group: c2v
  Basis Set: CC-PV(D+D)Z
    Blend: CC-PV(D+D)Z
  Basis Set: (CC-PV(D+D)Z AUX)
    Blend: CC-PVDZ-JKFIT
  @DF-RKS Final Energy:  -113.29944987866595
    Total Energy =                       -113.2994498786659392
  Basis Set: CC-PV(D+D)Z
    Blend: CC-PV(D+D)Z
  Basis Set: (CC-PV(D+D)Z AUX)
    Blend: CC-PVDZ-JKFIT
  @DF-RKS Final Energy:  -113.29943621332424
    Total Energy =                       -113.2994362133242561
  Basis Set: CC-PV(D+D)Z
    Blend: CC-PV(D+D)Z
  Basis Set: (CC-PV(D+D)Z AUX)
    Blend: CC-PVDZ-JKFIT
  @DF-RKS Final Energy:  -113.29945025858612
    Total Energy =                       -113.2994502585861198
  @DF-RKS Final Energy:  -113.29944872957266
    Total Energy =                       -113.2994487295726600
  @DF-RKS Final Energy:  -113.29944705654280
    Total Energy =                       -113.2994470565428031
  @DF-RKS Final Energy:  -113.29945033164368
    Total Energy =                       -113.2994503316437118
  @DF-RKS Final Energy:  -113.29944797309913
    Total Energy =                       -113.2994479730991344
  @DF-RKS Final Energy:  -113.29944796479847
    Total Energy =                       -113.2994479647984747
  **** Optimization is complete! (in 3 steps) ****
    Final optimized geometry and variables:
  @DF-RKS Final Energy:  -113.29945033164365
    Total Energy =                       -113.2994503316436692
  @DF-RKS Final Energy:  -113.29944797309932
    Total Energy =                       -113.2994479730993191
  Basis Set: CC-PV(D+D)Z
    Blend: CC-PV(D+D)Z
  Basis Set: (CC-PV(D+D)Z AUX)
    Blend: CC-PVDZ-JKFIT
  @DF-RKS Final Energy:  -113.29944796479836
    Total Energy =                       -113.2994479647983752
  Basis Set: CC-PV(D+D)Z
    Blend: CC-PV(D+D)Z
  Basis Set: (CC-PV(D+D)Z AUX)
    Blend: CC-PVDZ-JKFIT
  @DF-RKS Final Energy:  -113.29945033164373
    Total Energy =                       -113.2994503316437260
  Multiplicity = 1
  Basis Set: CC-PV(D+D)Z
    Blend: CC-PV(D+D)Z
  Basis Set: (CC-PV(D+D)Z AUX)
    Blend: CC-PVDZ-JKFIT
  @DF-RKS Final Energy:  -113.29944797309922
    Total Energy =                       -113.2994479730992197
    Molecular point group: c2v

    Geometry (in Angstrom), charge = 0, multiplicity = 1:

       Center              X                  Y                   Z               Mass
    ------------   -----------------  -----------------  -----------------  -----------------
         C            0.000000000000     0.000000000000    -0.646679024854    12.000000000000
         O            0.000000000000     0.000000000000     0.485163471192    15.994914619570

  Charge       = 0
  Multiplicity = 1
  Basis Set: CC-PV(D+D)Z
    Blend: CC-PV(D+D)Z
  Basis Set: (CC-PV(D+D)Z AUX)
    Blend: CC-PVDZ-JKFIT

    Orbital Energies [Eh]
    ---------------------

    Doubly Occupied:

       1A1   -19.450217     2A1   -10.471140     3A1    -1.288198
       4A1    -0.684495     1B2    -0.574076     1B1    -0.574076
       5A1    -0.475516

  @DF-RKS Final Energy:  -113.29944796479855

   => Energetics <=

    Nuclear Repulsion Energy =             22.4417321322473029
    One-Electron Energy =                -198.1429909082995096
    Two-Electron Energy =                  72.3885783440018287
    DFT Exchange-Correlation Energy =     -10.0459498284714090
    Empirical Dispersion Energy =           0.0000000000000000
    VV10 Nonlocal Energy =                  0.0591822957232352
    Total Energy =                       -113.2994479647985600

  Dipole Moment: [D]
     X:     0.0000      Y:     0.0000      Z:     0.1342     Total:     0.1342

  Vibration                       6
  Freq [cm^-1]                2234.8742
  Irrep                           A1
  Reduced mass [u]             13.4388
  Force const [mDyne/A]        39.5472

  ==> Thermochemistry Components <==

  Entropy, S
    Electronic S            0.000 [cal/(mol K)]        0.000 [J/(mol K)]       0.00000000 [mEh/K] (multiplicity = 1)
    Translational S        35.923 [cal/(mol K)]      150.302 [J/(mol K)]       0.05724692 [mEh/K] (mol. weight = 27.9949 [u], P = 101325.00 [Pa])
    Rotational S           11.295 [cal/(mol K)]       47.256 [J/(mol K)]       0.01799899 [mEh/K] (symmetry no. = 1)
    Vibrational S           0.000 [cal/(mol K)]        0.002 [J/(mol K)]       0.00000077 [mEh/K]
  Total S                  47.218 [cal/(mol K)]      197.560 [J/(mol K)]       0.07524668 [mEh/K]
  Correction S              0.000 [cal/(mol K)]        0.000 [J/(mol K)]       0.00000000 [mEh/K]

  Constant volume heat capacity, Cv
    Electronic Cv           0.000 [cal/(mol K)]        0.000 [J/(mol K)]       0.00000000 [mEh/K]
    Translational Cv        2.981 [cal/(mol K)]       12.472 [J/(mol K)]       0.00475022 [mEh/K]
    Rotational Cv           1.987 [cal/(mol K)]        8.314 [J/(mol K)]       0.00316681 [mEh/K]
    Vibrational Cv          0.005 [cal/(mol K)]        0.020 [J/(mol K)]       0.00000763 [mEh/K]
  Total Cv                  4.973 [cal/(mol K)]       20.806 [J/(mol K)]       0.00792466 [mEh/K]
  Correction Cv             0.000 [cal/(mol K)]        0.000 [J/(mol K)]       0.00000000 [mEh/K]

  Constant pressure heat capacity, Cp
    Electronic Cp           0.000 [cal/(mol K)]        0.000 [J/(mol K)]       0.00000000 [mEh/K]
    Translational Cp        4.968 [cal/(mol K)]       20.786 [J/(mol K)]       0.00791703 [mEh/K]
    Rotational Cp           1.987 [cal/(mol K)]        8.314 [J/(mol K)]       0.00316681 [mEh/K]
    Vibrational Cp          0.005 [cal/(mol K)]        0.020 [J/(mol K)]       0.00000763 [mEh/K]
  Total Cp                  6.960 [cal/(mol K)]       29.121 [J/(mol K)]       0.01109147 [mEh/K]
  Correction Cp             0.000 [cal/(mol K)]        0.000 [J/(mol K)]       0.00000000 [mEh/K]

  ==> Thermochemistry Energy Analysis <==

  Raw electronic energy, E0
  Total E0, Electronic energy at well bottom at 0 [K]                 -113.29945033 [Eh]

  Zero-point energy, ZPE_vib = Sum_i nu_i / 2
    Electronic ZPE          0.000 [kcal/mol]        0.000 [kJ/mol]       0.00000000 [Eh]
    Translational ZPE       0.000 [kcal/mol]        0.000 [kJ/mol]       0.00000000 [Eh]
    Rotational ZPE          0.000 [kcal/mol]        0.000 [kJ/mol]       0.00000000 [Eh]
    Vibrational ZPE         3.195 [kcal/mol]       13.368 [kJ/mol]       0.00509142 [Eh]        1117.437 [cm^-1]
  Correction ZPE            3.195 [kcal/mol]       13.368 [kJ/mol]       0.00509142 [Eh]        1117.437 [cm^-1]
  Total ZPE, Electronic energy at 0 [K]                               -113.29435891 [Eh]

  Thermal Energy, E (includes ZPE)
    Electronic E            0.000 [kcal/mol]        0.000 [kJ/mol]       0.00000000 [Eh]
    Translational E         0.889 [kcal/mol]        3.718 [kJ/mol]       0.00141628 [Eh]
    Rotational E            0.592 [kcal/mol]        2.479 [kJ/mol]       0.00094418 [Eh]
    Vibrational E           3.195 [kcal/mol]       13.368 [kJ/mol]       0.00509163 [Eh]
  Correction E              4.676 [kcal/mol]       19.565 [kJ/mol]       0.00745209 [Eh]
  Total E, Electronic energy at  298.15 [K]                           -113.29199824 [Eh]

  Enthalpy, H_trans = E_trans + k_B * T
    Electronic H            0.000 [kcal/mol]        0.000 [kJ/mol]       0.00000000 [Eh]
    Translational H         1.481 [kcal/mol]        6.197 [kJ/mol]       0.00236046 [Eh]
    Rotational H            0.592 [kcal/mol]        2.479 [kJ/mol]       0.00094418 [Eh]
    Vibrational H           3.195 [kcal/mol]       13.368 [kJ/mol]       0.00509163 [Eh]
  Correction H              5.269 [kcal/mol]       22.044 [kJ/mol]       0.00839627 [Eh]
  Total H, Enthalpy at  298.15 [K]                                    -113.29105406 [Eh]

  Gibbs free energy, G = H - T * S
    Electronic G            0.000 [kcal/mol]        0.000 [kJ/mol]       0.00000000 [Eh]
    Translational G        -9.229 [kcal/mol]      -38.615 [kJ/mol]      -0.01470771 [Eh]
    Rotational G           -2.775 [kcal/mol]      -11.611 [kJ/mol]      -0.00442221 [Eh]
    Vibrational G           3.195 [kcal/mol]       13.367 [kJ/mol]       0.00509140 [Eh]
  Correction G             -8.809 [kcal/mol]      -36.858 [kJ/mol]      -0.01403852 [Eh]
  Total G, Free enthalpy at  298.15 [K]                               -113.31348886 [Eh]

*** Psi4 exiting successfully. Buy a developer a beer!
