                               Psi4 1.3.2 release

  ==> Input File <==

--------------------------------------------------------------------------
memory 144 GB

molecule {
0 1
C 0.0000000000 0.0000000000 0.0000000000
S 0.0000000000 0.0000000000 1.5576337400
S 0.0000000000 0.0000000000 -1.5576337400
}

set dynamic_level 1
set basis cc-pV(D+d)Z

optimize("wB97M-V")
frequencies("wB97M-V")
--------------------------------------------------------------------------

    Molecular point group: d2h
  Charge       = 0
  Multiplicity = 1
  Basis Set: CC-PV(D+D)Z
    Blend: CC-PV(D+D)Z
  Basis Set: (CC-PV(D+D)Z AUX)
    Blend: CC-PVDZ-JKFIT
  @DF-RKS Final Energy:  -834.45207325671765
    Total Energy =                       -834.4520732567176537
    Molecular point group: d2h
  Basis Set: CC-PV(D+D)Z
    Blend: CC-PV(D+D)Z
  Basis Set: (CC-PV(D+D)Z AUX)
    Blend: CC-PVDZ-JKFIT
  @DF-RKS Final Energy:  -834.45207490611392
    Total Energy =                       -834.4520749061138076
  Basis Set: CC-PV(D+D)Z
    Blend: CC-PV(D+D)Z
  Basis Set: (CC-PV(D+D)Z AUX)
    Blend: CC-PVDZ-JKFIT
  @DF-RKS Final Energy:  -834.45207115014887
    Total Energy =                       -834.4520711501487540
  Basis Set: CC-PV(D+D)Z
    Blend: CC-PV(D+D)Z
  Basis Set: (CC-PV(D+D)Z AUX)
    Blend: CC-PVDZ-JKFIT
  @DF-RKS Final Energy:  -834.45207709897602
    Total Energy =                       -834.4520770989761331
  @DF-RKS Final Energy:  -834.45207691957160
    Total Energy =                       -834.4520769195714820
  @DF-RKS Final Energy:  -834.45207681758518
    Total Energy =                       -834.4520768175851799
  **** Optimization is complete! (in 2 steps) ****
    Final optimized geometry and variables:
  @DF-RKS Final Energy:  -834.45207709897534
    Total Energy =                       -834.4520770989752236
  @DF-RKS Final Energy:  -834.45207691957160
    Total Energy =                       -834.4520769195715957
  @DF-RKS Final Energy:  -834.45207681758598
    Total Energy =                       -834.4520768175857484
  @DF-RKS Final Energy:  -834.45207709897568
    Total Energy =                       -834.4520770989756784
  @DF-RKS Final Energy:  -834.45207691957137
    Total Energy =                       -834.4520769195713683
  Basis Set: CC-PV(D+D)Z
    Blend: CC-PV(D+D)Z
  Basis Set: (CC-PV(D+D)Z AUX)
    Blend: CC-PVDZ-JKFIT
  @DF-RKS Final Energy:  -834.45207681758586
    Total Energy =                       -834.4520768175858620
  Basis Set: CC-PV(D+D)Z
    Blend: CC-PV(D+D)Z
  Basis Set: (CC-PV(D+D)Z AUX)
    Blend: CC-PVDZ-JKFIT
  @DF-RKS Final Energy:  -834.45207589930567
    Total Energy =                       -834.4520758993057825
  Multiplicity = 1
  Basis Set: CC-PV(D+D)Z
    Blend: CC-PV(D+D)Z
  Basis Set: (CC-PV(D+D)Z AUX)
    Blend: CC-PVDZ-JKFIT
  @DF-RKS Final Energy:  -834.45207702031598
    Total Energy =                       -834.4520770203160964
    Molecular point group: c2v

    Geometry (in Angstrom), charge = 0, multiplicity = 1:

       Center              X                  Y                   Z               Mass
    ------------   -----------------  -----------------  -----------------  -----------------
         C           -0.000700864006     0.000000000000     0.000000000000    12.000000000000
         S            0.000131526794     0.000000000000     1.556317363072    31.972071174400
         S            0.000131526794     0.000000000000    -1.556317363072    31.972071174400

  Charge       = 0
  Multiplicity = 1
  Basis Set: CC-PV(D+D)Z
    Blend: CC-PV(D+D)Z
  Basis Set: (CC-PV(D+D)Z AUX)
    Blend: CC-PVDZ-JKFIT

    Orbital Energies [Eh]
    ---------------------

    Doubly Occupied:

       1B2   -89.227693     1A1   -89.227693     2A1   -10.488649
       2B2    -8.150300     3A1    -8.150276     3B2    -6.059626
       4A1    -6.059610     1A2    -6.054653     4B2    -6.054653
       1B1    -6.054650     5A1    -6.054650     6A1    -0.984184
       5B2    -0.888809     7A1    -0.612861     6B2    -0.527789
       8A1    -0.492795     2B1    -0.492795     2A2    -0.354453
       7B2    -0.354453

  @DF-RKS Final Energy:  -834.45207702023322

   => Energetics <=

    Nuclear Repulsion Energy =            108.8060166263099688
    One-Electron Energy =               -1366.7409312806939852
    Two-Electron Energy =                 466.7699404552051305
    DFT Exchange-Correlation Energy =     -43.4442125113329212
    Empirical Dispersion Energy =           0.0000000000000000
    VV10 Nonlocal Energy =                  0.1571096902786427
    Total Energy =                       -834.4520770202332187

  Dipole Moment: [D]
     X:     0.0004      Y:     0.0000      Z:     0.0000     Total:     0.0004

  Vibration                       6                   7                   8
  Freq [cm^-1]                 407.7795            407.9940            697.8912
  Irrep                          B2u                 B3u                  Ag
  Reduced mass [u]             13.3142             13.3142             31.9721
  Force const [mDyne/A]         1.3044              1.3058              9.1748

  Vibration                       9
  Freq [cm^-1]                1592.5027
  Irrep                          B1u
  Reduced mass [u]             13.3142
  Force const [mDyne/A]        19.8941

  ==> Thermochemistry Components <==

  Entropy, S
    Electronic S            0.000 [cal/(mol K)]        0.000 [J/(mol K)]       0.00000000 [mEh/K] (multiplicity = 1)
    Translational S        38.898 [cal/(mol K)]      162.748 [J/(mol K)]       0.06198752 [mEh/K] (mol. weight = 75.9441 [u], P = 101325.00 [Pa])
    Rotational S           15.616 [cal/(mol K)]       65.339 [J/(mol K)]       0.02488640 [mEh/K] (symmetry no. = 2)
    Vibrational S           2.185 [cal/(mol K)]        9.141 [J/(mol K)]       0.00348162 [mEh/K]
  Total S                  56.699 [cal/(mol K)]      237.228 [J/(mol K)]       0.09035554 [mEh/K]
  Correction S              0.000 [cal/(mol K)]        0.000 [J/(mol K)]       0.00000000 [mEh/K]

  Constant volume heat capacity, Cv
    Electronic Cv           0.000 [cal/(mol K)]        0.000 [J/(mol K)]       0.00000000 [mEh/K]
    Translational Cv        2.981 [cal/(mol K)]       12.472 [J/(mol K)]       0.00475022 [mEh/K]
    Rotational Cv           1.987 [cal/(mol K)]        8.314 [J/(mol K)]       0.00316681 [mEh/K]
    Vibrational Cv          3.793 [cal/(mol K)]       15.872 [J/(mol K)]       0.00604524 [mEh/K]
  Total Cv                  8.761 [cal/(mol K)]       36.658 [J/(mol K)]       0.01396227 [mEh/K]
  Correction Cv             0.000 [cal/(mol K)]        0.000 [J/(mol K)]       0.00000000 [mEh/K]

  Constant pressure heat capacity, Cp
    Electronic Cp           0.000 [cal/(mol K)]        0.000 [J/(mol K)]       0.00000000 [mEh/K]
    Translational Cp        4.968 [cal/(mol K)]       20.786 [J/(mol K)]       0.00791703 [mEh/K]
    Rotational Cp           1.987 [cal/(mol K)]        8.314 [J/(mol K)]       0.00316681 [mEh/K]
    Vibrational Cp          3.793 [cal/(mol K)]       15.872 [J/(mol K)]       0.00604524 [mEh/K]
  Total Cp                 10.749 [cal/(mol K)]       44.972 [J/(mol K)]       0.01712908 [mEh/K]
  Correction Cp             0.000 [cal/(mol K)]        0.000 [J/(mol K)]       0.00000000 [mEh/K]

  ==> Thermochemistry Energy Analysis <==

  Raw electronic energy, E0
  Total E0, Electronic energy at well bottom at 0 [K]                 -834.45207710 [Eh]

  Zero-point energy, ZPE_vib = Sum_i nu_i / 2
    Electronic ZPE          0.000 [kcal/mol]        0.000 [kJ/mol]       0.00000000 [Eh]
    Translational ZPE       0.000 [kcal/mol]        0.000 [kJ/mol]       0.00000000 [Eh]
    Rotational ZPE          0.000 [kcal/mol]        0.000 [kJ/mol]       0.00000000 [Eh]
    Vibrational ZPE         4.440 [kcal/mol]       18.579 [kJ/mol]       0.00707637 [Eh]        1553.084 [cm^-1]
  Correction ZPE            4.440 [kcal/mol]       18.579 [kJ/mol]       0.00707637 [Eh]        1553.084 [cm^-1]
  Total ZPE, Electronic energy at 0 [K]                               -834.44500073 [Eh]

  Thermal Energy, E (includes ZPE)
    Electronic E            0.000 [kcal/mol]        0.000 [kJ/mol]       0.00000000 [Eh]
    Translational E         0.889 [kcal/mol]        3.718 [kJ/mol]       0.00141628 [Eh]
    Rotational E            0.592 [kcal/mol]        2.479 [kJ/mol]       0.00094418 [Eh]
    Vibrational E           4.893 [kcal/mol]       20.470 [kJ/mol]       0.00779674 [Eh]
  Correction E              6.374 [kcal/mol]       26.668 [kJ/mol]       0.01015720 [Eh]
  Total E, Electronic energy at  298.15 [K]                           -834.44191990 [Eh]

  Enthalpy, H_trans = E_trans + k_B * T
    Electronic H            0.000 [kcal/mol]        0.000 [kJ/mol]       0.00000000 [Eh]
    Translational H         1.481 [kcal/mol]        6.197 [kJ/mol]       0.00236046 [Eh]
    Rotational H            0.592 [kcal/mol]        2.479 [kJ/mol]       0.00094418 [Eh]
    Vibrational H           4.893 [kcal/mol]       20.470 [kJ/mol]       0.00779674 [Eh]
  Correction H              6.966 [kcal/mol]       29.147 [kJ/mol]       0.01110138 [Eh]
  Total H, Enthalpy at  298.15 [K]                                    -834.44097572 [Eh]

  Gibbs free energy, G = H - T * S
    Electronic G            0.000 [kcal/mol]        0.000 [kJ/mol]       0.00000000 [Eh]
    Translational G       -10.116 [kcal/mol]      -42.326 [kJ/mol]      -0.01612112 [Eh]
    Rotational G           -4.064 [kcal/mol]      -17.002 [kJ/mol]      -0.00647570 [Eh]
    Vibrational G           4.241 [kcal/mol]       17.745 [kJ/mol]       0.00675869 [Eh]
  Correction G             -9.939 [kcal/mol]      -41.583 [kJ/mol]      -0.01583812 [Eh]
  Total G, Free enthalpy at  298.15 [K]                               -834.46791522 [Eh]

*** Psi4 exiting successfully. Buy a developer a beer!
