                               Psi4 1.3.2 release

  ==> Input File <==

--------------------------------------------------------------------------
memory 144 GB

molecule {
0 1
C 0.0000000000 0.0000000000 0.0000000000
S 0.0000000000 0.0000000000 1.5415329200
}

set dynamic_level 1
set basis cc-pV(D+d)Z

optimize("wB97M-V")
frequencies("wB97M-V")
--------------------------------------------------------------------------

    Molecular point group: c2v
  Charge       = 0
  Multiplicity = 1
  Basis Set: CC-PV(D+D)Z
    Blend: CC-PV(D+D)Z
  Basis Set: (CC-PV(D+D)Z AUX)
    Blend: CC-PVDZ-JKFIT
  @DF-RKS Final Energy:  -436.19388884541843
    Total Energy =                       -436.1938888454183711
    Molecular point group: c2v
  Basis Set: CC-PV(D+D)Z
    Blend: CC-PV(D+D)Z
  Basis Set: (CC-PV(D+D)Z AUX)
    Blend: CC-PVDZ-JKFIT
  @DF-RKS Final Energy:  -436.19387576537622
    Total Energy =                       -436.1938757653761058
  Basis Set: CC-PV(D+D)Z
    Blend: CC-PV(D+D)Z
  Basis Set: (CC-PV(D+D)Z AUX)
    Blend: CC-PVDZ-JKFIT
  @DF-RKS Final Energy:  -436.19390023773599
    Total Energy =                       -436.1939002377360453
  Basis Set: CC-PV(D+D)Z
    Blend: CC-PV(D+D)Z
  Basis Set: (CC-PV(D+D)Z AUX)
    Blend: CC-PVDZ-JKFIT
  @DF-RKS Final Energy:  -436.19393249413719
    Total Energy =                       -436.1939324941373002
  @DF-RKS Final Energy:  -436.19393075185889
    Total Energy =                       -436.1939307518588294
  @DF-RKS Final Energy:  -436.19393249518674
    Total Energy =                       -436.1939324951867434
  @DF-RKS Final Energy:  -436.19393271281990
    Total Energy =                       -436.1939327128199579
  @DF-RKS Final Energy:  -436.19393185484472
    Total Energy =                       -436.1939318548447773
  @DF-RKS Final Energy:  -436.19393182522236
    Total Energy =                       -436.1939318252223643
  **** Optimization is complete! (in 3 steps) ****
    Final optimized geometry and variables:
  @DF-RKS Final Energy:  -436.19393271281984
    Total Energy =                       -436.1939327128198443
  @DF-RKS Final Energy:  -436.19393185484472
    Total Energy =                       -436.1939318548447204
  Basis Set: CC-PV(D+D)Z
    Blend: CC-PV(D+D)Z
  Basis Set: (CC-PV(D+D)Z AUX)
    Blend: CC-PVDZ-JKFIT
  @DF-RKS Final Energy:  -436.19393182522271
    Total Energy =                       -436.1939318252227054
  Basis Set: CC-PV(D+D)Z
    Blend: CC-PV(D+D)Z
  Basis Set: (CC-PV(D+D)Z AUX)
    Blend: CC-PVDZ-JKFIT
  @DF-RKS Final Energy:  -436.19393271281984
    Total Energy =                       -436.1939327128198443
  Multiplicity = 1
  Basis Set: CC-PV(D+D)Z
    Blend: CC-PV(D+D)Z
  Basis Set: (CC-PV(D+D)Z AUX)
    Blend: CC-PVDZ-JKFIT
  @DF-RKS Final Energy:  -436.19393185484478
    Total Energy =                       -436.1939318548447773
    Molecular point group: c2v

    Geometry (in Angstrom), charge = 0, multiplicity = 1:

       Center              X                  Y                   Z               Mass
    ------------   -----------------  -----------------  -----------------  -----------------
         C            0.000000000000     0.000000000000    -1.115548153154    12.000000000000
         S            0.000000000000     0.000000000000     0.418695985156    31.972071174400

  Charge       = 0
  Multiplicity = 1
  Basis Set: CC-PV(D+D)Z
    Blend: CC-PV(D+D)Z
  Basis Set: (CC-PV(D+D)Z AUX)
    Blend: CC-PVDZ-JKFIT

    Orbital Energies [Eh]
    ---------------------

    Doubly Occupied:

       1A1   -89.240257     2A1   -10.451873     3A1    -8.166508
       4A1    -6.072372     1B2    -6.072231     1B1    -6.072231
       5A1    -0.955247     6A1    -0.625063     2B2    -0.445613
       2B1    -0.445613     7A1    -0.406799

  @DF-RKS Final Energy:  -436.19393182522248

   => Energetics <=

    Nuclear Repulsion Energy =             33.1114266340166878
    One-Electron Energy =                -665.9439804241231968
    Two-Electron Energy =                 220.1171659761734816
    DFT Exchange-Correlation Energy =     -23.5706742704536403
    Empirical Dispersion Energy =           0.0000000000000000
    VV10 Nonlocal Energy =                  0.0921302591642517
    Total Energy =                       -436.1939318252224211

  Dipole Moment: [D]
     X:     0.0000      Y:     0.0000      Z:     1.7955     Total:     1.7955

  Vibration                       6
  Freq [cm^-1]                1358.3235
  Irrep                           A1
  Reduced mass [u]             14.4661
  Force const [mDyne/A]        15.7256

  ==> Thermochemistry Components <==

  Entropy, S
    Electronic S            0.000 [cal/(mol K)]        0.000 [J/(mol K)]       0.00000000 [mEh/K] (multiplicity = 1)
    Translational S        37.269 [cal/(mol K)]      155.933 [J/(mol K)]       0.05939180 [mEh/K] (mol. weight = 43.9721 [u], P = 101325.00 [Pa])
    Rotational S           12.981 [cal/(mol K)]       54.314 [J/(mol K)]       0.02068705 [mEh/K] (symmetry no. = 1)
    Vibrational S           0.021 [cal/(mol K)]        0.090 [J/(mol K)]       0.00003410 [mEh/K]
  Total S                  50.272 [cal/(mol K)]      210.337 [J/(mol K)]       0.08011295 [mEh/K]
  Correction S              0.000 [cal/(mol K)]        0.000 [J/(mol K)]       0.00000000 [mEh/K]

  Constant volume heat capacity, Cv
    Electronic Cv           0.000 [cal/(mol K)]        0.000 [J/(mol K)]       0.00000000 [mEh/K]
    Translational Cv        2.981 [cal/(mol K)]       12.472 [J/(mol K)]       0.00475022 [mEh/K]
    Rotational Cv           1.987 [cal/(mol K)]        8.314 [J/(mol K)]       0.00316681 [mEh/K]
    Vibrational Cv          0.122 [cal/(mol K)]        0.510 [J/(mol K)]       0.00019420 [mEh/K]
  Total Cv                  5.090 [cal/(mol K)]       21.296 [J/(mol K)]       0.00811123 [mEh/K]
  Correction Cv             0.000 [cal/(mol K)]        0.000 [J/(mol K)]       0.00000000 [mEh/K]

  Constant pressure heat capacity, Cp
    Electronic Cp           0.000 [cal/(mol K)]        0.000 [J/(mol K)]       0.00000000 [mEh/K]
    Translational Cp        4.968 [cal/(mol K)]       20.786 [J/(mol K)]       0.00791703 [mEh/K]
    Rotational Cp           1.987 [cal/(mol K)]        8.314 [J/(mol K)]       0.00316681 [mEh/K]
    Vibrational Cp          0.122 [cal/(mol K)]        0.510 [J/(mol K)]       0.00019420 [mEh/K]
  Total Cp                  7.077 [cal/(mol K)]       29.610 [J/(mol K)]       0.01127804 [mEh/K]
  Correction Cp             0.000 [cal/(mol K)]        0.000 [J/(mol K)]       0.00000000 [mEh/K]

  ==> Thermochemistry Energy Analysis <==

  Raw electronic energy, E0
  Total E0, Electronic energy at well bottom at 0 [K]                 -436.19393271 [Eh]

  Zero-point energy, ZPE_vib = Sum_i nu_i / 2
    Electronic ZPE          0.000 [kcal/mol]        0.000 [kJ/mol]       0.00000000 [Eh]
    Translational ZPE       0.000 [kcal/mol]        0.000 [kJ/mol]       0.00000000 [Eh]
    Rotational ZPE          0.000 [kcal/mol]        0.000 [kJ/mol]       0.00000000 [Eh]
    Vibrational ZPE         1.942 [kcal/mol]        8.125 [kJ/mol]       0.00309449 [Eh]         679.162 [cm^-1]
  Correction ZPE            1.942 [kcal/mol]        8.125 [kJ/mol]       0.00309449 [Eh]         679.162 [cm^-1]
  Total ZPE, Electronic energy at 0 [K]                               -436.19083822 [Eh]

  Thermal Energy, E (includes ZPE)
    Electronic E            0.000 [kcal/mol]        0.000 [kJ/mol]       0.00000000 [Eh]
    Translational E         0.889 [kcal/mol]        3.718 [kJ/mol]       0.00141628 [Eh]
    Rotational E            0.592 [kcal/mol]        2.479 [kJ/mol]       0.00094418 [Eh]
    Vibrational E           1.947 [kcal/mol]        8.148 [kJ/mol]       0.00310331 [Eh]
  Correction E              3.429 [kcal/mol]       14.345 [kJ/mol]       0.00546377 [Eh]
  Total E, Electronic energy at  298.15 [K]                           -436.18846894 [Eh]

  Enthalpy, H_trans = E_trans + k_B * T
    Electronic H            0.000 [kcal/mol]        0.000 [kJ/mol]       0.00000000 [Eh]
    Translational H         1.481 [kcal/mol]        6.197 [kJ/mol]       0.00236046 [Eh]
    Rotational H            0.592 [kcal/mol]        2.479 [kJ/mol]       0.00094418 [Eh]
    Vibrational H           1.947 [kcal/mol]        8.148 [kJ/mol]       0.00310331 [Eh]
  Correction H              4.021 [kcal/mol]       16.824 [kJ/mol]       0.00640796 [Eh]
  Total H, Enthalpy at  298.15 [K]                                    -436.18752476 [Eh]

  Gibbs free energy, G = H - T * S
    Electronic G            0.000 [kcal/mol]        0.000 [kJ/mol]       0.00000000 [Eh]
    Translational G        -9.631 [kcal/mol]      -40.294 [kJ/mol]      -0.01534720 [Eh]
    Rotational G           -3.278 [kcal/mol]      -13.715 [kJ/mol]      -0.00522366 [Eh]
    Vibrational G           1.941 [kcal/mol]        8.121 [kJ/mol]       0.00309314 [Eh]
  Correction G            -10.967 [kcal/mol]      -45.888 [kJ/mol]      -0.01747772 [Eh]
  Total G, Free enthalpy at  298.15 [K]                               -436.21141043 [Eh]

*** Psi4 exiting successfully. Buy a developer a beer!
