                               Psi4 1.3.2 release

  ==> Input File <==

--------------------------------------------------------------------------
memory 144 GB

molecule {
0 1
F 0.0000000000 0.0000000000 0.0000000000
F 0.0000000000 0.0000000000 1.4129000000
}

set dynamic_level 1
set basis cc-pV(D+d)Z

optimize("wB97M-V")
frequencies("wB97M-V")
--------------------------------------------------------------------------

    Molecular point group: d2h
  Charge       = 0
  Multiplicity = 1
  Basis Set: CC-PV(D+D)Z
    Blend: CC-PV(D+D)Z
  Basis Set: (CC-PV(D+D)Z AUX)
    Blend: CC-PVDZ-JKFIT
  @DF-RKS Final Energy:  -199.46564523576814
    Total Energy =                       -199.4656452357681360
    Molecular point group: d2h
  Basis Set: CC-PV(D+D)Z
    Blend: CC-PV(D+D)Z
  Basis Set: (CC-PV(D+D)Z AUX)
    Blend: CC-PVDZ-JKFIT
  @DF-RKS Final Energy:  -199.46562529735687
    Total Energy =                       -199.4656252973568655
  Basis Set: CC-PV(D+D)Z
    Blend: CC-PV(D+D)Z
  Basis Set: (CC-PV(D+D)Z AUX)
    Blend: CC-PVDZ-JKFIT
  @DF-RKS Final Energy:  -199.46566421898896
    Total Energy =                       -199.4656642189889624
  Basis Set: CC-PV(D+D)Z
    Blend: CC-PV(D+D)Z
  Basis Set: (CC-PV(D+D)Z AUX)
    Blend: CC-PVDZ-JKFIT
  @DF-RKS Final Energy:  -199.46583392654711
    Total Energy =                       -199.4658339265471341
  @DF-RKS Final Energy:  -199.46583086890968
    Total Energy =                       -199.4658308689096771
  @DF-RKS Final Energy:  -199.46583594340703
    Total Energy =                       -199.4658359434070007
  @DF-RKS Final Energy:  -199.46583700126754
    Total Energy =                       -199.4658370012674879
  @DF-RKS Final Energy:  -199.46583660141590
    Total Energy =                       -199.4658366014159014
  @DF-RKS Final Energy:  -199.46583634694974
    Total Energy =                       -199.4658363469497431
  **** Optimization is complete! (in 3 steps) ****
    Final optimized geometry and variables:
  @DF-RKS Final Energy:  -199.46583700126760
    Total Energy =                       -199.4658370012676016
  @DF-RKS Final Energy:  -199.46583660141582
    Total Energy =                       -199.4658366014157878
  Basis Set: CC-PV(D+D)Z
    Blend: CC-PV(D+D)Z
  Basis Set: (CC-PV(D+D)Z AUX)
    Blend: CC-PVDZ-JKFIT
  @DF-RKS Final Energy:  -199.46583634694960
    Total Energy =                       -199.4658363469495725
  Basis Set: CC-PV(D+D)Z
    Blend: CC-PV(D+D)Z
  Basis Set: (CC-PV(D+D)Z AUX)
    Blend: CC-PVDZ-JKFIT
  @DF-RKS Final Energy:  -199.46583700126754
    Total Energy =                       -199.4658370012675448
  Multiplicity = 1
  Basis Set: CC-PV(D+D)Z
    Blend: CC-PV(D+D)Z
  Basis Set: (CC-PV(D+D)Z AUX)
    Blend: CC-PVDZ-JKFIT
  @DF-RKS Final Energy:  -199.46583660141576
    Total Energy =                       -199.4658366014157593
    Molecular point group: d2h

    Geometry (in Angstrom), charge = 0, multiplicity = 1:

       Center              X                  Y                   Z               Mass
    ------------   -----------------  -----------------  -----------------  -----------------
         F            0.000000000000     0.000000000000    -0.697645883683    18.998403162730
         F            0.000000000000     0.000000000000     0.697645883683    18.998403162730

  Charge       = 0
  Multiplicity = 1
  Basis Set: CC-PV(D+D)Z
    Blend: CC-PV(D+D)Z
  Basis Set: (CC-PV(D+D)Z AUX)
    Blend: CC-PVDZ-JKFIT

    Orbital Energies [Eh]
    ---------------------

    Doubly Occupied:

       1B1u  -25.016161     1Ag   -25.016154     2Ag    -1.482666
       2B1u   -1.229076     3Ag    -0.693100     1B2u   -0.643766
       1B3u   -0.643766     1B3g   -0.506902     1B2g   -0.506902

  @DF-RKS Final Energy:  -199.46583634694966

   => Energetics <=

    Nuclear Repulsion Energy =             30.7199935287818278
    One-Electron Energy =                -339.2698369844332547
    Two-Electron Energy =                 124.3520119294466184
    DFT Exchange-Correlation Energy =     -15.3451480272940550
    Empirical Dispersion Energy =           0.0000000000000000
    VV10 Nonlocal Energy =                  0.0771432065491620
    Total Energy =                       -199.4658363469496578

  Dipole Moment: [D]
     X:     0.0000      Y:     0.0000      Z:     0.0000     Total:     0.0000

  Vibration                       6
  Freq [cm^-1]                1055.5761
  Irrep                           Ag
  Reduced mass [u]             18.9984
  Force const [mDyne/A]        12.4723

  ==> Thermochemistry Components <==

  Entropy, S
    Electronic S            0.000 [cal/(mol K)]        0.000 [J/(mol K)]       0.00000000 [mEh/K] (multiplicity = 1)
    Translational S        36.834 [cal/(mol K)]      154.112 [J/(mol K)]       0.05869802 [mEh/K] (mol. weight = 37.9968 [u], P = 101325.00 [Pa])
    Rotational S           11.396 [cal/(mol K)]       47.679 [J/(mol K)]       0.01816007 [mEh/K] (symmetry no. = 2)
    Vibrational S           0.075 [cal/(mol K)]        0.313 [J/(mol K)]       0.00011905 [mEh/K]
  Total S                  48.304 [cal/(mol K)]      202.103 [J/(mol K)]       0.07697713 [mEh/K]
  Correction S              0.000 [cal/(mol K)]        0.000 [J/(mol K)]       0.00000000 [mEh/K]

  Constant volume heat capacity, Cv
    Electronic Cv           0.000 [cal/(mol K)]        0.000 [J/(mol K)]       0.00000000 [mEh/K]
    Translational Cv        2.981 [cal/(mol K)]       12.472 [J/(mol K)]       0.00475022 [mEh/K]
    Rotational Cv           1.987 [cal/(mol K)]        8.314 [J/(mol K)]       0.00316681 [mEh/K]
    Vibrational Cv          0.320 [cal/(mol K)]        1.340 [J/(mol K)]       0.00051029 [mEh/K]
  Total Cv                  5.288 [cal/(mol K)]       22.126 [J/(mol K)]       0.00842732 [mEh/K]
  Correction Cv             0.000 [cal/(mol K)]        0.000 [J/(mol K)]       0.00000000 [mEh/K]

  Constant pressure heat capacity, Cp
    Electronic Cp           0.000 [cal/(mol K)]        0.000 [J/(mol K)]       0.00000000 [mEh/K]
    Translational Cp        4.968 [cal/(mol K)]       20.786 [J/(mol K)]       0.00791703 [mEh/K]
    Rotational Cp           1.987 [cal/(mol K)]        8.314 [J/(mol K)]       0.00316681 [mEh/K]
    Vibrational Cp          0.320 [cal/(mol K)]        1.340 [J/(mol K)]       0.00051029 [mEh/K]
  Total Cp                  7.275 [cal/(mol K)]       30.440 [J/(mol K)]       0.01159413 [mEh/K]
  Correction Cp             0.000 [cal/(mol K)]        0.000 [J/(mol K)]       0.00000000 [mEh/K]

  ==> Thermochemistry Energy Analysis <==

  Raw electronic energy, E0
  Total E0, Electronic energy at well bottom at 0 [K]                 -199.46583700 [Eh]

  Zero-point energy, ZPE_vib = Sum_i nu_i / 2
    Electronic ZPE          0.000 [kcal/mol]        0.000 [kJ/mol]       0.00000000 [Eh]
    Translational ZPE       0.000 [kcal/mol]        0.000 [kJ/mol]       0.00000000 [Eh]
    Rotational ZPE          0.000 [kcal/mol]        0.000 [kJ/mol]       0.00000000 [Eh]
    Vibrational ZPE         1.509 [kcal/mol]        6.314 [kJ/mol]       0.00240478 [Eh]         527.788 [cm^-1]
  Correction ZPE            1.509 [kcal/mol]        6.314 [kJ/mol]       0.00240478 [Eh]         527.788 [cm^-1]
  Total ZPE, Electronic energy at 0 [K]                               -199.46343222 [Eh]

  Thermal Energy, E (includes ZPE)
    Electronic E            0.000 [kcal/mol]        0.000 [kJ/mol]       0.00000000 [Eh]
    Translational E         0.889 [kcal/mol]        3.718 [kJ/mol]       0.00141628 [Eh]
    Rotational E            0.592 [kcal/mol]        2.479 [kJ/mol]       0.00094418 [Eh]
    Vibrational E           1.528 [kcal/mol]        6.392 [kJ/mol]       0.00243446 [Eh]
  Correction E              3.009 [kcal/mol]       12.589 [kJ/mol]       0.00479493 [Eh]
  Total E, Electronic energy at  298.15 [K]                           -199.46104208 [Eh]

  Enthalpy, H_trans = E_trans + k_B * T
    Electronic H            0.000 [kcal/mol]        0.000 [kJ/mol]       0.00000000 [Eh]
    Translational H         1.481 [kcal/mol]        6.197 [kJ/mol]       0.00236046 [Eh]
    Rotational H            0.592 [kcal/mol]        2.479 [kJ/mol]       0.00094418 [Eh]
    Vibrational H           1.528 [kcal/mol]        6.392 [kJ/mol]       0.00243446 [Eh]
  Correction H              3.601 [kcal/mol]       15.068 [kJ/mol]       0.00573911 [Eh]
  Total H, Enthalpy at  298.15 [K]                                    -199.46009789 [Eh]

  Gibbs free energy, G = H - T * S
    Electronic G            0.000 [kcal/mol]        0.000 [kJ/mol]       0.00000000 [Eh]
    Translational G        -9.501 [kcal/mol]      -39.751 [kJ/mol]      -0.01514035 [Eh]
    Rotational G           -2.805 [kcal/mol]      -11.737 [kJ/mol]      -0.00447024 [Eh]
    Vibrational G           1.505 [kcal/mol]        6.298 [kJ/mol]       0.00239897 [Eh]
  Correction G            -10.800 [kcal/mol]      -45.189 [kJ/mol]      -0.01721162 [Eh]
  Total G, Free enthalpy at  298.15 [K]                               -199.48304862 [Eh]

*** Psi4 exiting successfully. Buy a developer a beer!
