                               Psi4 1.3.2 release

  ==> Input File <==

--------------------------------------------------------------------------
memory 144 GB

molecule {
0 1
O 0.0000000000 0.0000000000 0.0000000000
C 0.0000000000 0.0000000000 1.2066000000
H 0.9369544103 0.0000000000 1.7870836544
H -0.9369544103 0.0000000000 1.7870836544
}

set dynamic_level 1
set basis cc-pV(D+d)Z

optimize("wB97M-V")
frequencies("wB97M-V")
--------------------------------------------------------------------------

    Molecular point group: c2v
  Charge       = 0
  Multiplicity = 1
  Basis Set: CC-PV(D+D)Z
    Blend: CC-PV(D+D)Z
  Basis Set: (CC-PV(D+D)Z AUX)
    Blend: CC-PVDZ-JKFIT
  @DF-RKS Final Energy:  -114.46276461376560
    Total Energy =                       -114.4627646137655859
    Molecular point group: c2v
  Basis Set: CC-PV(D+D)Z
    Blend: CC-PV(D+D)Z
  Basis Set: (CC-PV(D+D)Z AUX)
    Blend: CC-PVDZ-JKFIT
  @DF-RKS Final Energy:  -114.46275274032841
    Total Energy =                       -114.4627527403283977
  Basis Set: CC-PV(D+D)Z
    Blend: CC-PV(D+D)Z
  Basis Set: (CC-PV(D+D)Z AUX)
    Blend: CC-PVDZ-JKFIT
  @DF-RKS Final Energy:  -114.46277347027306
    Total Energy =                       -114.4627734702730635
  Basis Set: CC-PV(D+D)Z
    Blend: CC-PV(D+D)Z
  Basis Set: (CC-PV(D+D)Z AUX)
    Blend: CC-PVDZ-JKFIT
  @DF-RKS Final Energy:  -114.46280606742452
    Total Energy =                       -114.4628060674245091
  @DF-RKS Final Energy:  -114.46271907729449
    Total Energy =                       -114.4627190772944942
  @DF-RKS Final Energy:  -114.46271381449378
    Total Energy =                       -114.4627138144937817
  @DF-RKS Final Energy:  -114.46280850670493
    Total Energy =                       -114.4628085067049312
  @DF-RKS Final Energy:  -114.46302955696024
    Total Energy =                       -114.4630295569602367
  @DF-RKS Final Energy:  -114.46302270332816
    Total Energy =                       -114.4630227033281642
  @DF-RKS Final Energy:  -114.46303335063618
    Total Energy =                       -114.4630333506361808
  @DF-RKS Final Energy:  -114.46303548847169
    Total Energy =                       -114.4630354884716894
  @DF-RKS Final Energy:  -114.46301967350757
    Total Energy =                       -114.4630196735075742
  @DF-RKS Final Energy:  -114.46302563246529
    Total Energy =                       -114.4630256324652890
  @DF-RKS Final Energy:  -114.46302705021120
    Total Energy =                       -114.4630270502111955
  @DF-RKS Final Energy:  -114.46304202547358
    Total Energy =                       -114.4630420254735839
  @DF-RKS Final Energy:  -114.46303987648920
    Total Energy =                       -114.4630398764892050
  @DF-RKS Final Energy:  -114.46304108148826
    Total Energy =                       -114.4630410814882566
  @DF-RKS Final Energy:  -114.46304104597188
    Total Energy =                       -114.4630410459718775
  @DF-RKS Final Energy:  -114.46303904982730
    Total Energy =                       -114.4630390498272874
  @DF-RKS Final Energy:  -114.46303984626499
    Total Energy =                       -114.4630398462649907
  **** Optimization is complete! (in 4 steps) ****
    Final optimized geometry and variables:
  @DF-RKS Final Energy:  -114.46303937504828
    Total Energy =                       -114.4630393750482824
  @DF-RKS Final Energy:  -114.46303916156924
    Total Energy =                       -114.4630391615692417
  @DF-RKS Final Energy:  -114.46304245969107
    Total Energy =                       -114.4630424596910530
  @DF-RKS Final Energy:  -114.46304091185367
    Total Energy =                       -114.4630409118536676
  @DF-RKS Final Energy:  -114.46304091008105
    Total Energy =                       -114.4630409100810482
  @DF-RKS Final Energy:  -114.46304052571996
    Total Energy =                       -114.4630405257199612
  @DF-RKS Final Energy:  -114.46304043360355
    Total Energy =                       -114.4630404336035525
  @DF-RKS Final Energy:  -114.46303937504830
    Total Energy =                       -114.4630393750482966
  @DF-RKS Final Energy:  -114.46303916156923
    Total Energy =                       -114.4630391615692275
  @DF-RKS Final Energy:  -114.46303923987497
    Total Energy =                       -114.4630392398749734
  @DF-RKS Final Energy:  -114.46303933210237
    Total Energy =                       -114.4630393321023689
  @DF-RKS Final Energy:  -114.46303784153937
    Total Energy =                       -114.4630378415393892
  @DF-RKS Final Energy:  -114.46303805475009
    Total Energy =                       -114.4630380547501005
  @DF-RKS Final Energy:  -114.46303966718899
    Total Energy =                       -114.4630396671889798
  @DF-RKS Final Energy:  -114.46303998711772
    Total Energy =                       -114.4630399871177389
  @DF-RKS Final Energy:  -114.46304171212472
    Total Energy =                       -114.4630417121247206
  Basis Set: CC-PV(D+D)Z
    Blend: CC-PV(D+D)Z
  Basis Set: (CC-PV(D+D)Z AUX)
    Blend: CC-PVDZ-JKFIT
  @DF-RKS Final Energy:  -114.46303828554061
    Total Energy =                       -114.4630382855405912
  Basis Set: CC-PV(D+D)Z
    Blend: CC-PV(D+D)Z
  Basis Set: (CC-PV(D+D)Z AUX)
    Blend: CC-PVDZ-JKFIT
  @DF-RKS Final Energy:  -114.46303759538280
    Total Energy =                       -114.4630375953828008
  Multiplicity = 1
  Basis Set: CC-PV(D+D)Z
    Blend: CC-PV(D+D)Z
  Basis Set: (CC-PV(D+D)Z AUX)
    Blend: CC-PVDZ-JKFIT
  @DF-RKS Final Energy:  -114.46303759540389
    Total Energy =                       -114.4630375954039039
    Molecular point group: cs

    Geometry (in Angstrom), charge = 0, multiplicity = 1:

       Center              X                  Y                   Z               Mass
    ------------   -----------------  -----------------  -----------------  -----------------
         O            0.000000000000    -0.000098248945    -0.601228078840    15.994914619570
         C            0.000000000000     0.000394856822     0.600378563171    12.000000000000
         H            0.944492132702    -0.001571105235     1.196660607126     1.007825032230
         H           -0.944492132702    -0.001571105235     1.196660607126     1.007825032230

  Charge       = 0
  Multiplicity = 1
  Basis Set: CC-PV(D+D)Z
    Blend: CC-PV(D+D)Z
  Basis Set: (CC-PV(D+D)Z AUX)
    Blend: CC-PVDZ-JKFIT

    Orbital Energies [Eh]
    ---------------------

    Doubly Occupied:

       1Ap   -19.362550     2Ap   -10.456575     3Ap    -1.188889
       4Ap    -0.744150     1App   -0.597618     5Ap    -0.555561
       6Ap    -0.501477     2App   -0.364410

  @DF-RKS Final Energy:  -114.46304178985957

   => Energetics <=

    Nuclear Repulsion Energy =             31.2731090186598628
    One-Electron Energy =                -217.3951367945071240
    Two-Electron Energy =                  82.0633835044123856
    DFT Exchange-Correlation Energy =     -10.4709792087454243
    Empirical Dispersion Energy =           0.0000000000000000
    VV10 Nonlocal Energy =                  0.0665816903207323
    Total Energy =                       -114.4630417898595738

  Dipole Moment: [D]
     X:     0.0000      Y:    -0.0005      Z:     2.1150     Total:     2.1150

  Vibration                       7                   8                   9
  Freq [cm^-1]                1189.9591           1256.9102           1513.3617
  Irrep                           B2                  B1                  A1
  Reduced mass [u]              1.3721              1.3487              1.0894
  Force const [mDyne/A]         1.1447              1.2554              1.4700

  Vibration                       10                  11                  12
  Freq [cm^-1]                1864.5205           2905.0740           2970.6113
  Irrep                           A1                  A1                  B1
  Reduced mass [u]              8.0745              1.0469              1.1204
  Force const [mDyne/A]        16.5386              5.2054              5.8253

  ==> Thermochemistry Components <==

  Entropy, S
    Electronic S            0.000 [cal/(mol K)]        0.000 [J/(mol K)]       0.00000000 [mEh/K] (multiplicity = 1)
    Translational S        36.130 [cal/(mol K)]      151.169 [J/(mol K)]       0.05757719 [mEh/K] (mol. weight = 30.0106 [u], P = 101325.00 [Pa])
    Rotational S           16.027 [cal/(mol K)]       67.059 [J/(mol K)]       0.02554141 [mEh/K] (symmetry no. = 2)
    Vibrational S           0.089 [cal/(mol K)]        0.374 [J/(mol K)]       0.00014245 [mEh/K]
  Total S                  52.247 [cal/(mol K)]      218.602 [J/(mol K)]       0.08326105 [mEh/K]
  Correction S              0.000 [cal/(mol K)]        0.000 [J/(mol K)]       0.00000000 [mEh/K]

  Constant volume heat capacity, Cv
    Electronic Cv           0.000 [cal/(mol K)]        0.000 [J/(mol K)]       0.00000000 [mEh/K]
    Translational Cv        2.981 [cal/(mol K)]       12.472 [J/(mol K)]       0.00475022 [mEh/K]
    Rotational Cv           2.981 [cal/(mol K)]       12.472 [J/(mol K)]       0.00475022 [mEh/K]
    Vibrational Cv          0.474 [cal/(mol K)]        1.983 [J/(mol K)]       0.00075535 [mEh/K]
  Total Cv                  6.436 [cal/(mol K)]       26.927 [J/(mol K)]       0.01025578 [mEh/K]
  Correction Cv             0.000 [cal/(mol K)]        0.000 [J/(mol K)]       0.00000000 [mEh/K]

  Constant pressure heat capacity, Cp
    Electronic Cp           0.000 [cal/(mol K)]        0.000 [J/(mol K)]       0.00000000 [mEh/K]
    Translational Cp        4.968 [cal/(mol K)]       20.786 [J/(mol K)]       0.00791703 [mEh/K]
    Rotational Cp           2.981 [cal/(mol K)]       12.472 [J/(mol K)]       0.00475022 [mEh/K]
    Vibrational Cp          0.474 [cal/(mol K)]        1.983 [J/(mol K)]       0.00075535 [mEh/K]
  Total Cp                  8.423 [cal/(mol K)]       35.241 [J/(mol K)]       0.01342259 [mEh/K]
  Correction Cp             0.000 [cal/(mol K)]        0.000 [J/(mol K)]       0.00000000 [mEh/K]

  ==> Thermochemistry Energy Analysis <==

  Raw electronic energy, E0
  Total E0, Electronic energy at well bottom at 0 [K]                 -114.46304246 [Eh]

  Zero-point energy, ZPE_vib = Sum_i nu_i / 2
    Electronic ZPE          0.000 [kcal/mol]        0.000 [kJ/mol]       0.00000000 [Eh]
    Translational ZPE       0.000 [kcal/mol]        0.000 [kJ/mol]       0.00000000 [Eh]
    Rotational ZPE          0.000 [kcal/mol]        0.000 [kJ/mol]       0.00000000 [Eh]
    Vibrational ZPE        16.727 [kcal/mol]       69.984 [kJ/mol]       0.02665556 [Eh]        5850.218 [cm^-1]
  Correction ZPE           16.727 [kcal/mol]       69.984 [kJ/mol]       0.02665556 [Eh]        5850.218 [cm^-1]
  Total ZPE, Electronic energy at 0 [K]                               -114.43638690 [Eh]

  Thermal Energy, E (includes ZPE)
    Electronic E            0.000 [kcal/mol]        0.000 [kJ/mol]       0.00000000 [Eh]
    Translational E         0.889 [kcal/mol]        3.718 [kJ/mol]       0.00141628 [Eh]
    Rotational E            0.889 [kcal/mol]        3.718 [kJ/mol]       0.00141628 [Eh]
    Vibrational E          16.750 [kcal/mol]       70.080 [kJ/mol]       0.02669205 [Eh]
  Correction E             18.527 [kcal/mol]       77.517 [kJ/mol]       0.02952460 [Eh]
  Total E, Electronic energy at  298.15 [K]                           -114.43351786 [Eh]

  Enthalpy, H_trans = E_trans + k_B * T
    Electronic H            0.000 [kcal/mol]        0.000 [kJ/mol]       0.00000000 [Eh]
    Translational H         1.481 [kcal/mol]        6.197 [kJ/mol]       0.00236046 [Eh]
    Rotational H            0.889 [kcal/mol]        3.718 [kJ/mol]       0.00141628 [Eh]
    Vibrational H          16.750 [kcal/mol]       70.080 [kJ/mol]       0.02669205 [Eh]
  Correction H             19.119 [kcal/mol]       79.996 [kJ/mol]       0.03046878 [Eh]
  Total H, Enthalpy at  298.15 [K]                                    -114.43257368 [Eh]

  Gibbs free energy, G = H - T * S
    Electronic G            0.000 [kcal/mol]        0.000 [kJ/mol]       0.00000000 [Eh]
    Translational G        -9.291 [kcal/mol]      -38.874 [kJ/mol]      -0.01480618 [Eh]
    Rotational G           -3.890 [kcal/mol]      -16.275 [kJ/mol]      -0.00619890 [Eh]
    Vibrational G          16.723 [kcal/mol]       69.968 [kJ/mol]       0.02664957 [Eh]
  Correction G              3.542 [kcal/mol]       14.820 [kJ/mol]       0.00564450 [Eh]
  Total G, Free enthalpy at  298.15 [K]                               -114.45739796 [Eh]

*** Psi4 exiting successfully. Buy a developer a beer!
