                               Psi4 1.3.2 release

  ==> Input File <==

--------------------------------------------------------------------------
memory 144 GB

molecule {
0 1
S 0.0000000000 0.0000000000 0.0000000000
C 0.0000000000 0.0000000000 1.2066000000
H 0.9369544103 0.0000000000 1.7870836544
H -0.9369544103 0.0000000000 1.7870836544
}

set dynamic_level 1
set basis cc-pV(D+d)Z

optimize("wB97M-V")
frequencies("wB97M-V")
--------------------------------------------------------------------------

    Molecular point group: c2v
  Charge       = 0
  Multiplicity = 1
  Basis Set: CC-PV(D+D)Z
    Blend: CC-PV(D+D)Z
  Basis Set: (CC-PV(D+D)Z AUX)
    Blend: CC-PVDZ-JKFIT
  @DF-RKS Final Energy:  -437.13433152205630
    Total Energy =                       -437.1343315220562999
    Molecular point group: c2v
  Basis Set: CC-PV(D+D)Z
    Blend: CC-PV(D+D)Z
  Basis Set: (CC-PV(D+D)Z AUX)
    Blend: CC-PVDZ-JKFIT
  @DF-RKS Final Energy:  -437.13606377449923
    Total Energy =                       -437.1360637744992914
  Basis Set: CC-PV(D+D)Z
    Blend: CC-PV(D+D)Z
  Basis Set: (CC-PV(D+D)Z AUX)
    Blend: CC-PVDZ-JKFIT
  @DF-RKS Final Energy:  -437.13259122112999
    Total Energy =                       -437.1325912211300420
  Basis Set: CC-PV(D+D)Z
    Blend: CC-PV(D+D)Z
  Basis Set: (CC-PV(D+D)Z AUX)
    Blend: CC-PVDZ-JKFIT
  @DF-RKS Final Energy:  -437.13392588684246
    Total Energy =                       -437.1339258868424622
  @DF-RKS Final Energy:  -437.13473230665585
    Total Energy =                       -437.1347323066558488
  @DF-RKS Final Energy:  -437.13433857689319
    Total Energy =                       -437.1343385768931853
  @DF-RKS Final Energy:  -437.13431812392326
    Total Energy =                       -437.1343181239233218
  @DF-RKS Final Energy:  -437.32797134074093
    Total Energy =                       -437.3279713407409304
  @DF-RKS Final Energy:  -437.32873903212874
    Total Energy =                       -437.3287390321287376
  @DF-RKS Final Energy:  -437.32719929487052
    Total Energy =                       -437.3271992948704678
  @DF-RKS Final Energy:  -437.32775096487950
    Total Energy =                       -437.3277509648794990
  @DF-RKS Final Energy:  -437.32818730086746
    Total Energy =                       -437.3281873008674552
  @DF-RKS Final Energy:  -437.32799664732096
    Total Energy =                       -437.3279966473210720
  @DF-RKS Final Energy:  -437.32793982417655
    Total Energy =                       -437.3279398241765534
  @DF-RKS Final Energy:  -437.39438351569322
    Total Energy =                       -437.3943835156932209
  @DF-RKS Final Energy:  -437.39472824142814
    Total Energy =                       -437.3947282414280835
  @DF-RKS Final Energy:  -437.39403611144712
    Total Energy =                       -437.3940361114471784
  @DF-RKS Final Energy:  -437.39426731943689
    Total Energy =                       -437.3942673194368354
  @DF-RKS Final Energy:  -437.39449541694211
    Total Energy =                       -437.3944954169421067
  @DF-RKS Final Energy:  -437.39438724158543
    Total Energy =                       -437.3943872415854912
  **** Optimization is complete! (in 9 steps) ****
    Final optimized geometry and variables:
  @DF-RKS Final Energy:  -437.42252869449067
    Total Energy =                       -437.4225286944907225
  @DF-RKS Final Energy:  -437.42252869396617
    Total Energy =                       -437.4225286939661146
  @DF-RKS Final Energy:  -437.42253219220402
    Total Energy =                       -437.4225321922040166
  @DF-RKS Final Energy:  -437.42253159698379
    Total Energy =                       -437.4225315969837879
  @DF-RKS Final Energy:  -437.42253154667804
    Total Energy =                       -437.4225315466779875
  @DF-RKS Final Energy:  -437.42253018549951
    Total Energy =                       -437.4225301854995109
  @DF-RKS Final Energy:  -437.42253018815325
    Total Energy =                       -437.4225301881532459
  @DF-RKS Final Energy:  -437.42252869449078
    Total Energy =                       -437.4225286944907793
  @DF-RKS Final Energy:  -437.42252869396594
    Total Energy =                       -437.4225286939659441
  @DF-RKS Final Energy:  -437.42252972638812
    Total Energy =                       -437.4225297263881203
  @DF-RKS Final Energy:  -437.42252977362187
    Total Energy =                       -437.4225297736218749
  @DF-RKS Final Energy:  -437.42252802427367
    Total Energy =                       -437.4225280242736176
  @DF-RKS Final Energy:  -437.42252807389576
    Total Energy =                       -437.4225280738957622
  @DF-RKS Final Energy:  -437.42252982619721
    Total Energy =                       -437.4225298261972057
  @DF-RKS Final Energy:  -437.42252984196750
    Total Energy =                       -437.4225298419675596
  @DF-RKS Final Energy:  -437.42253172610702
    Total Energy =                       -437.4225317261070245
  Basis Set: CC-PV(D+D)Z
    Blend: CC-PV(D+D)Z
  Basis Set: (CC-PV(D+D)Z AUX)
    Blend: CC-PVDZ-JKFIT
  @DF-RKS Final Energy:  -437.42252742643842
    Total Energy =                       -437.4225274264383643
  Basis Set: CC-PV(D+D)Z
    Blend: CC-PV(D+D)Z
  Basis Set: (CC-PV(D+D)Z AUX)
    Blend: CC-PVDZ-JKFIT
  @DF-RKS Final Energy:  -437.42252701061830
    Total Energy =                       -437.4225270106182961
  Multiplicity = 1
  Basis Set: CC-PV(D+D)Z
    Blend: CC-PV(D+D)Z
  Basis Set: (CC-PV(D+D)Z AUX)
    Blend: CC-PVDZ-JKFIT
  @DF-RKS Final Energy:  -437.42252701059203
    Total Energy =                       -437.4225270105920913
    Molecular point group: cs

    Geometry (in Angstrom), charge = 0, multiplicity = 1:

       Center              X                  Y                   Z               Mass
    ------------   -----------------  -----------------  -----------------  -----------------
         S            0.000000000000    -0.000037374128    -0.514399860063    31.972071174400
         C            0.000000000000     0.000371864518     1.089098943482    12.000000000000
         H            0.929786584887    -0.001621038290     1.675509889236     1.007825032230
         H           -0.929786584887    -0.001621038290     1.675509889236     1.007825032230

  Charge       = 0
  Multiplicity = 1
  Basis Set: CC-PV(D+D)Z
    Blend: CC-PV(D+D)Z
  Basis Set: (CC-PV(D+D)Z AUX)
    Blend: CC-PVDZ-JKFIT

    Orbital Energies [Eh]
    ---------------------

    Doubly Occupied:

       1Ap   -89.194242     2Ap   -10.428608     3Ap    -8.115911
       4Ap    -6.025729     5Ap    -6.024264     1App   -6.016002
       6Ap    -0.919000     7Ap    -0.709018     2App   -0.562851
       8Ap    -0.491559     9Ap    -0.412473     3App   -0.321014

  @DF-RKS Final Energy:  -437.42253169685881

   => Energetics <=

    Nuclear Repulsion Energy =             44.8602410200912090
    One-Electron Energy =                -691.1288096477563840
    Two-Electron Energy =                 232.7521874044615799
    DFT Exchange-Correlation Energy =     -24.0054889759717263
    Empirical Dispersion Energy =           0.0000000000000000
    VV10 Nonlocal Energy =                  0.0993385023165207
    Total Energy =                       -437.4225316968588686

  Dipole Moment: [D]
     X:     0.0000      Y:    -0.0025      Z:     1.5997     Total:     1.5997

  Vibration                       7                   8                   9
  Freq [cm^-1]                 992.4736           1023.3007           1132.7751
  Irrep                           B1                  B2                  A1
  Reduced mass [u]              1.2099              1.2976              3.8290
  Force const [mDyne/A]         0.7021              0.8006              2.8948

  Vibration                       10                  11                  12
  Freq [cm^-1]                1470.8775           3081.9970           3174.1124
  Irrep                           A1                  A1                  B1
  Reduced mass [u]              1.2490              1.0523              1.1194
  Force const [mDyne/A]         1.5921              5.8891              6.6447

  ==> Thermochemistry Components <==

  Entropy, S
    Electronic S            0.000 [cal/(mol K)]        0.000 [J/(mol K)]       0.00000000 [mEh/K] (multiplicity = 1)
    Translational S        37.403 [cal/(mol K)]      156.492 [J/(mol K)]       0.05960470 [mEh/K] (mol. weight = 45.9877 [u], P = 101325.00 [Pa])
    Rotational S           17.477 [cal/(mol K)]       73.125 [J/(mol K)]       0.02785184 [mEh/K] (symmetry no. = 2)
    Vibrational S           0.249 [cal/(mol K)]        1.044 [J/(mol K)]       0.00039748 [mEh/K]
  Total S                  55.129 [cal/(mol K)]      230.661 [J/(mol K)]       0.08785402 [mEh/K]
  Correction S              0.000 [cal/(mol K)]        0.000 [J/(mol K)]       0.00000000 [mEh/K]

  Constant volume heat capacity, Cv
    Electronic Cv           0.000 [cal/(mol K)]        0.000 [J/(mol K)]       0.00000000 [mEh/K]
    Translational Cv        2.981 [cal/(mol K)]       12.472 [J/(mol K)]       0.00475022 [mEh/K]
    Rotational Cv           2.981 [cal/(mol K)]       12.472 [J/(mol K)]       0.00475022 [mEh/K]
    Vibrational Cv          1.074 [cal/(mol K)]        4.494 [J/(mol K)]       0.00171182 [mEh/K]
  Total Cv                  7.036 [cal/(mol K)]       29.438 [J/(mol K)]       0.01121225 [mEh/K]
  Correction Cv             0.000 [cal/(mol K)]        0.000 [J/(mol K)]       0.00000000 [mEh/K]

  Constant pressure heat capacity, Cp
    Electronic Cp           0.000 [cal/(mol K)]        0.000 [J/(mol K)]       0.00000000 [mEh/K]
    Translational Cp        4.968 [cal/(mol K)]       20.786 [J/(mol K)]       0.00791703 [mEh/K]
    Rotational Cp           2.981 [cal/(mol K)]       12.472 [J/(mol K)]       0.00475022 [mEh/K]
    Vibrational Cp          1.074 [cal/(mol K)]        4.494 [J/(mol K)]       0.00171182 [mEh/K]
  Total Cp                  9.023 [cal/(mol K)]       37.752 [J/(mol K)]       0.01437906 [mEh/K]
  Correction Cp             0.000 [cal/(mol K)]        0.000 [J/(mol K)]       0.00000000 [mEh/K]

  ==> Thermochemistry Energy Analysis <==

  Raw electronic energy, E0
  Total E0, Electronic energy at well bottom at 0 [K]                 -437.42253219 [Eh]

  Zero-point energy, ZPE_vib = Sum_i nu_i / 2
    Electronic ZPE          0.000 [kcal/mol]        0.000 [kJ/mol]       0.00000000 [Eh]
    Translational ZPE       0.000 [kcal/mol]        0.000 [kJ/mol]       0.00000000 [Eh]
    Rotational ZPE          0.000 [kcal/mol]        0.000 [kJ/mol]       0.00000000 [Eh]
    Vibrational ZPE        15.547 [kcal/mol]       65.050 [kJ/mol]       0.02477629 [Eh]        5437.768 [cm^-1]
  Correction ZPE           15.547 [kcal/mol]       65.050 [kJ/mol]       0.02477629 [Eh]        5437.768 [cm^-1]
  Total ZPE, Electronic energy at 0 [K]                               -437.39775590 [Eh]

  Thermal Energy, E (includes ZPE)
    Electronic E            0.000 [kcal/mol]        0.000 [kJ/mol]       0.00000000 [Eh]
    Translational E         0.889 [kcal/mol]        3.718 [kJ/mol]       0.00141628 [Eh]
    Rotational E            0.889 [kcal/mol]        3.718 [kJ/mol]       0.00141628 [Eh]
    Vibrational E          15.610 [kcal/mol]       65.310 [kJ/mol]       0.02487534 [Eh]
  Correction E             17.387 [kcal/mol]       72.747 [kJ/mol]       0.02770790 [Eh]
  Total E, Electronic energy at  298.15 [K]                           -437.39482429 [Eh]

  Enthalpy, H_trans = E_trans + k_B * T
    Electronic H            0.000 [kcal/mol]        0.000 [kJ/mol]       0.00000000 [Eh]
    Translational H         1.481 [kcal/mol]        6.197 [kJ/mol]       0.00236046 [Eh]
    Rotational H            0.889 [kcal/mol]        3.718 [kJ/mol]       0.00141628 [Eh]
    Vibrational H          15.610 [kcal/mol]       65.310 [kJ/mol]       0.02487534 [Eh]
  Correction H             17.979 [kcal/mol]       75.226 [kJ/mol]       0.02865208 [Eh]
  Total H, Enthalpy at  298.15 [K]                                    -437.39388011 [Eh]

  Gibbs free energy, G = H - T * S
    Electronic G            0.000 [kcal/mol]        0.000 [kJ/mol]       0.00000000 [Eh]
    Translational G        -9.670 [kcal/mol]      -40.461 [kJ/mol]      -0.01541068 [Eh]
    Rotational G           -4.322 [kcal/mol]      -18.084 [kJ/mol]      -0.00688775 [Eh]
    Vibrational G          15.535 [kcal/mol]       64.999 [kJ/mol]       0.02475684 [Eh]
  Correction G              1.543 [kcal/mol]        6.455 [kJ/mol]       0.00245841 [Eh]
  Total G, Free enthalpy at  298.15 [K]                               -437.42007379 [Eh]

*** Psi4 exiting successfully. Buy a developer a beer!
