                               Psi4 1.3.2 release

  ==> Input File <==

--------------------------------------------------------------------------
memory 144 GB

molecule {
0 1
O 0.0000000000 0.0000000000 0.0000000000
H 0.0000000000 0.0000000000 0.9579000000
H 0.9289588892 0.0000000000 -0.2336831018
}

set dynamic_level 1
set basis cc-pV(D+d)Z

optimize("wB97M-V")
frequencies("wB97M-V")
--------------------------------------------------------------------------

    Molecular point group: c2v
  Charge       = 0
  Multiplicity = 1
  Basis Set: CC-PV(D+D)Z
    Blend: CC-PV(D+D)Z
  Basis Set: (CC-PV(D+D)Z AUX)
    Blend: CC-PVDZ-JKFIT
  @DF-RKS Final Energy:   -76.38935643031651
    Total Energy =                        -76.3893564303164965
    Molecular point group: c2v
  Basis Set: CC-PV(D+D)Z
    Blend: CC-PV(D+D)Z
  Basis Set: (CC-PV(D+D)Z AUX)
    Blend: CC-PVDZ-JKFIT
  @DF-RKS Final Energy:   -76.38940139216182
    Total Energy =                        -76.3894013921618154
  Basis Set: CC-PV(D+D)Z
    Blend: CC-PV(D+D)Z
  Basis Set: (CC-PV(D+D)Z AUX)
    Blend: CC-PVDZ-JKFIT
  @DF-RKS Final Energy:   -76.38930484467218
    Total Energy =                        -76.3893048446721679
  Basis Set: CC-PV(D+D)Z
    Blend: CC-PV(D+D)Z
  Basis Set: (CC-PV(D+D)Z AUX)
    Blend: CC-PVDZ-JKFIT
  @DF-RKS Final Energy:   -76.38931537013589
    Total Energy =                        -76.3893153701358898
  @DF-RKS Final Energy:   -76.38938714329022
    Total Energy =                        -76.3893871432902358
  @DF-RKS Final Energy:   -76.38953120555047
    Total Energy =                        -76.3895312055504689
  @DF-RKS Final Energy:   -76.38953487562098
    Total Energy =                        -76.3895348756209671
  @DF-RKS Final Energy:   -76.38952102598191
    Total Energy =                        -76.3895210259818924
  @DF-RKS Final Energy:   -76.38952320170021
    Total Energy =                        -76.3895232017002286
  @DF-RKS Final Energy:   -76.38952934677137
    Total Energy =                        -76.3895293467713685
  @DF-RKS Final Energy:   -76.38953548464343
    Total Energy =                        -76.3895354846434316
  @DF-RKS Final Energy:   -76.38953236344433
    Total Energy =                        -76.3895323634443315
  @DF-RKS Final Energy:   -76.38953209711175
    Total Energy =                        -76.3895320971117684
  @DF-RKS Final Energy:   -76.38953003665580
    Total Energy =                        -76.3895300366558132
  @DF-RKS Final Energy:   -76.38953113739035
    Total Energy =                        -76.3895311373903354
  **** Optimization is complete! (in 3 steps) ****
    Final optimized geometry and variables:
  @DF-RKS Final Energy:   -76.38953548464349
    Total Energy =                        -76.3895354846434884
  @DF-RKS Final Energy:   -76.38953236344439
    Total Energy =                        -76.3895323634444026
  @DF-RKS Final Energy:   -76.38953209711177
    Total Energy =                        -76.3895320971117400
  @DF-RKS Final Energy:   -76.38953003665576
    Total Energy =                        -76.3895300366557564
  @DF-RKS Final Energy:   -76.38953113739038
    Total Energy =                        -76.3895311373903638
  @DF-RKS Final Energy:   -76.38953548464355
    Total Energy =                        -76.3895354846435595
  @DF-RKS Final Energy:   -76.38953236344432
    Total Energy =                        -76.3895323634442889
  @DF-RKS Final Energy:   -76.38953209711170
    Total Energy =                        -76.3895320971117116
  @DF-RKS Final Energy:   -76.38953003665574
    Total Energy =                        -76.3895300366557422
  Basis Set: CC-PV(D+D)Z
    Blend: CC-PV(D+D)Z
  Basis Set: (CC-PV(D+D)Z AUX)
    Blend: CC-PVDZ-JKFIT
  @DF-RKS Final Energy:   -76.38953113739039
    Total Energy =                        -76.3895311373903922
  Basis Set: CC-PV(D+D)Z
    Blend: CC-PV(D+D)Z
  Basis Set: (CC-PV(D+D)Z AUX)
    Blend: CC-PVDZ-JKFIT
  @DF-RKS Final Energy:   -76.38953303506780
    Total Energy =                        -76.3895330350677995
  Multiplicity = 1
  Basis Set: CC-PV(D+D)Z
    Blend: CC-PV(D+D)Z
  Basis Set: (CC-PV(D+D)Z AUX)
    Blend: CC-PVDZ-JKFIT
  @DF-RKS Final Energy:   -76.38953221765276
    Total Energy =                        -76.3895322176527571
    Molecular point group: cs

    Geometry (in Angstrom), charge = 0, multiplicity = 1:

       Center              X                  Y                   Z               Mass
    ------------   -----------------  -----------------  -----------------  -----------------
         O            0.000000000000    -0.000176520199    -0.067702305094    15.994914619570
         H            0.000000000000     0.755165097784     0.538366549990     1.007825032230
         H            0.000000000000    -0.752363594132     0.536118162034     1.007825032230

  Charge       = 0
  Multiplicity = 1
  Basis Set: CC-PV(D+D)Z
    Blend: CC-PV(D+D)Z
  Basis Set: (CC-PV(D+D)Z AUX)
    Blend: CC-PVDZ-JKFIT

    Orbital Energies [Eh]
    ---------------------

    Doubly Occupied:

       1Ap   -19.327303     2Ap    -1.116417     3Ap    -0.610021
       4Ap    -0.474707     1App   -0.395256

  @DF-RKS Final Energy:   -76.38952826803549

   => Energetics <=

    Nuclear Repulsion Energy =              9.1113797026537497
    One-Electron Energy =                -123.0028895376635631
    Two-Electron Energy =                  44.1307858971888436
    DFT Exchange-Correlation Energy =      -6.6714650852907118
    Empirical Dispersion Energy =           0.0000000000000000
    VV10 Nonlocal Energy =                  0.0426607550761861
    Total Energy =                        -76.3895282680354910

  Dipole Moment: [D]
     X:     0.0000      Y:     0.0020      Z:     1.9449     Total:     1.9449

  Vibration                       7                   8                   9
  Freq [cm^-1]                1660.6561           3804.6372           3905.8524
  Irrep                           A1                  A1                  B2
  Reduced mass [u]              1.0813              1.0464              1.0799
  Force const [mDyne/A]         1.7570              8.9245              9.7062

  ==> Thermochemistry Components <==

  Entropy, S
    Electronic S            0.000 [cal/(mol K)]        0.000 [J/(mol K)]       0.00000000 [mEh/K] (multiplicity = 1)
    Translational S        34.608 [cal/(mol K)]      144.801 [J/(mol K)]       0.05515177 [mEh/K] (mol. weight = 18.0106 [u], P = 101325.00 [Pa])
    Rotational S           10.518 [cal/(mol K)]       44.008 [J/(mol K)]       0.01676192 [mEh/K] (symmetry no. = 2)
    Vibrational S           0.006 [cal/(mol K)]        0.025 [J/(mol K)]       0.00000945 [mEh/K]
  Total S                  45.132 [cal/(mol K)]      188.834 [J/(mol K)]       0.07192315 [mEh/K]
  Correction S              0.000 [cal/(mol K)]        0.000 [J/(mol K)]       0.00000000 [mEh/K]

  Constant volume heat capacity, Cv
    Electronic Cv           0.000 [cal/(mol K)]        0.000 [J/(mol K)]       0.00000000 [mEh/K]
    Translational Cv        2.981 [cal/(mol K)]       12.472 [J/(mol K)]       0.00475022 [mEh/K]
    Rotational Cv           2.981 [cal/(mol K)]       12.472 [J/(mol K)]       0.00475022 [mEh/K]
    Vibrational Cv          0.042 [cal/(mol K)]        0.177 [J/(mol K)]       0.00006735 [mEh/K]
  Total Cv                  6.004 [cal/(mol K)]       25.120 [J/(mol K)]       0.00956778 [mEh/K]
  Correction Cv             0.000 [cal/(mol K)]        0.000 [J/(mol K)]       0.00000000 [mEh/K]

  Constant pressure heat capacity, Cp
    Electronic Cp           0.000 [cal/(mol K)]        0.000 [J/(mol K)]       0.00000000 [mEh/K]
    Translational Cp        4.968 [cal/(mol K)]       20.786 [J/(mol K)]       0.00791703 [mEh/K]
    Rotational Cp           2.981 [cal/(mol K)]       12.472 [J/(mol K)]       0.00475022 [mEh/K]
    Vibrational Cp          0.042 [cal/(mol K)]        0.177 [J/(mol K)]       0.00006735 [mEh/K]
  Total Cp                  7.991 [cal/(mol K)]       33.435 [J/(mol K)]       0.01273460 [mEh/K]
  Correction Cp             0.000 [cal/(mol K)]        0.000 [J/(mol K)]       0.00000000 [mEh/K]

  ==> Thermochemistry Energy Analysis <==

  Raw electronic energy, E0
  Total E0, Electronic energy at well bottom at 0 [K]                  -76.38953548 [Eh]

  Zero-point energy, ZPE_vib = Sum_i nu_i / 2
    Electronic ZPE          0.000 [kcal/mol]        0.000 [kJ/mol]       0.00000000 [Eh]
    Translational ZPE       0.000 [kcal/mol]        0.000 [kJ/mol]       0.00000000 [Eh]
    Rotational ZPE          0.000 [kcal/mol]        0.000 [kJ/mol]       0.00000000 [Eh]
    Vibrational ZPE        13.397 [kcal/mol]       56.052 [kJ/mol]       0.02134904 [Eh]        4685.573 [cm^-1]
  Correction ZPE           13.397 [kcal/mol]       56.052 [kJ/mol]       0.02134904 [Eh]        4685.573 [cm^-1]
  Total ZPE, Electronic energy at 0 [K]                                -76.36818644 [Eh]

  Thermal Energy, E (includes ZPE)
    Electronic E            0.000 [kcal/mol]        0.000 [kJ/mol]       0.00000000 [Eh]
    Translational E         0.889 [kcal/mol]        3.718 [kJ/mol]       0.00141628 [Eh]
    Rotational E            0.889 [kcal/mol]        3.718 [kJ/mol]       0.00141628 [Eh]
    Vibrational E          13.398 [kcal/mol]       56.058 [kJ/mol]       0.02135155 [Eh]
  Correction E             15.176 [kcal/mol]       63.495 [kJ/mol]       0.02418410 [Eh]
  Total E, Electronic energy at  298.15 [K]                            -76.36535139 [Eh]

  Enthalpy, H_trans = E_trans + k_B * T
    Electronic H            0.000 [kcal/mol]        0.000 [kJ/mol]       0.00000000 [Eh]
    Translational H         1.481 [kcal/mol]        6.197 [kJ/mol]       0.00236046 [Eh]
    Rotational H            0.889 [kcal/mol]        3.718 [kJ/mol]       0.00141628 [Eh]
    Vibrational H          13.398 [kcal/mol]       56.058 [kJ/mol]       0.02135155 [Eh]
  Correction H             15.768 [kcal/mol]       65.974 [kJ/mol]       0.02512828 [Eh]
  Total H, Enthalpy at  298.15 [K]                                     -76.36440720 [Eh]

  Gibbs free energy, G = H - T * S
    Electronic G            0.000 [kcal/mol]        0.000 [kJ/mol]       0.00000000 [Eh]
    Translational G        -8.837 [kcal/mol]      -36.975 [kJ/mol]      -0.01408304 [Eh]
    Rotational G           -2.247 [kcal/mol]       -9.403 [kJ/mol]      -0.00358129 [Eh]
    Vibrational G          13.397 [kcal/mol]       56.051 [kJ/mol]       0.02134873 [Eh]
  Correction G              2.312 [kcal/mol]        9.673 [kJ/mol]       0.00368440 [Eh]
  Total G, Free enthalpy at  298.15 [K]                                -76.38585109 [Eh]

*** Psi4 exiting successfully. Buy a developer a beer!
