                               Psi4 1.3.2 release

  ==> Input File <==

--------------------------------------------------------------------------
memory 144 GB

molecule {
0 1
S 0.0000000000 0.0000000000 0.0000000000
H 0.0000000000 0.0000000000 1.3377284100
H 1.3366219004 0.0000000000 -0.0543984776
}

set dynamic_level 1
set basis cc-pV(D+d)Z

optimize("wB97M-V")
frequencies("wB97M-V")
--------------------------------------------------------------------------

    Molecular point group: c2v
  Charge       = 0
  Multiplicity = 1
  Basis Set: CC-PV(D+D)Z
    Blend: CC-PV(D+D)Z
  Basis Set: (CC-PV(D+D)Z AUX)
    Blend: CC-PVDZ-JKFIT
  @DF-RKS Final Energy:  -399.36117488219111
    Total Energy =                       -399.3611748821911647
    Molecular point group: c2v
  Basis Set: CC-PV(D+D)Z
    Blend: CC-PV(D+D)Z
  Basis Set: (CC-PV(D+D)Z AUX)
    Blend: CC-PVDZ-JKFIT
  @DF-RKS Final Energy:  -399.36119989977726
    Total Energy =                       -399.3611998997772616
  Basis Set: CC-PV(D+D)Z
    Blend: CC-PV(D+D)Z
  Basis Set: (CC-PV(D+D)Z AUX)
    Blend: CC-PVDZ-JKFIT
  @DF-RKS Final Energy:  -399.36114565216013
    Total Energy =                       -399.3611456521601895
  Basis Set: CC-PV(D+D)Z
    Blend: CC-PV(D+D)Z
  Basis Set: (CC-PV(D+D)Z AUX)
    Blend: CC-PVDZ-JKFIT
  @DF-RKS Final Energy:  -399.36114830579714
    Total Energy =                       -399.3611483057970872
  @DF-RKS Final Energy:  -399.36119695759919
    Total Energy =                       -399.3611969575992475
  @DF-RKS Final Energy:  -399.36126831122851
    Total Energy =                       -399.3612683112284572
  @DF-RKS Final Energy:  -399.36126547427500
    Total Energy =                       -399.3612654742750578
  @DF-RKS Final Energy:  -399.36126709327630
    Total Energy =                       -399.3612670932762967
  @DF-RKS Final Energy:  -399.36126791091806
    Total Energy =                       -399.3612679109180590
  @DF-RKS Final Energy:  -399.36126440379718
    Total Energy =                       -399.3612644037972359
  @DF-RKS Final Energy:  -399.36126869415210
    Total Energy =                       -399.3612686941521588
  @DF-RKS Final Energy:  -399.36126659945330
    Total Energy =                       -399.3612665994533586
  @DF-RKS Final Energy:  -399.36126672371267
    Total Energy =                       -399.3612667237126175
  @DF-RKS Final Energy:  -399.36126651052416
    Total Energy =                       -399.3612665105242172
  @DF-RKS Final Energy:  -399.36126656299649
    Total Energy =                       -399.3612665629965477
  **** Optimization is complete! (in 3 steps) ****
    Final optimized geometry and variables:
  @DF-RKS Final Energy:  -399.36126869415227
    Total Energy =                       -399.3612686941522725
  @DF-RKS Final Energy:  -399.36126659945313
    Total Energy =                       -399.3612665994530744
  @DF-RKS Final Energy:  -399.36126672371262
    Total Energy =                       -399.3612667237126175
  @DF-RKS Final Energy:  -399.36126651052405
    Total Energy =                       -399.3612665105239898
  @DF-RKS Final Energy:  -399.36126656299638
    Total Energy =                       -399.3612665629963772
  @DF-RKS Final Energy:  -399.36126869415250
    Total Energy =                       -399.3612686941524430
  @DF-RKS Final Energy:  -399.36126659945324
    Total Energy =                       -399.3612665994531881
  @DF-RKS Final Energy:  -399.36126672371296
    Total Energy =                       -399.3612667237129585
  @DF-RKS Final Energy:  -399.36126651052444
    Total Energy =                       -399.3612665105244446
  Basis Set: CC-PV(D+D)Z
    Blend: CC-PV(D+D)Z
  Basis Set: (CC-PV(D+D)Z AUX)
    Blend: CC-PVDZ-JKFIT
  @DF-RKS Final Energy:  -399.36126656299638
    Total Energy =                       -399.3612665629963772
  Basis Set: CC-PV(D+D)Z
    Blend: CC-PV(D+D)Z
  Basis Set: (CC-PV(D+D)Z AUX)
    Blend: CC-PVDZ-JKFIT
  @DF-RKS Final Energy:  -399.36126742368214
    Total Energy =                       -399.3612674236821363
  Multiplicity = 1
  Basis Set: CC-PV(D+D)Z
    Blend: CC-PV(D+D)Z
  Basis Set: (CC-PV(D+D)Z AUX)
    Blend: CC-PVDZ-JKFIT
  @DF-RKS Final Energy:  -399.36126724821594
    Total Energy =                       -399.3612672482159383
    Molecular point group: cs

    Geometry (in Angstrom), charge = 0, multiplicity = 1:

       Center              X                  Y                   Z               Mass
    ------------   -----------------  -----------------  -----------------  -----------------
         S            0.000000000000    -0.000083154431    -0.055518952968    31.972071174400
         H            0.000000000000     0.970326614161     0.881911217064     1.007825032230
         H            0.000000000000    -0.967688637028     0.879362673805     1.007825032230

  Charge       = 0
  Multiplicity = 1
  Basis Set: CC-PV(D+D)Z
    Blend: CC-PV(D+D)Z
  Basis Set: (CC-PV(D+D)Z AUX)
    Blend: CC-PVDZ-JKFIT

    Orbital Energies [Eh]
    ---------------------

    Doubly Occupied:

       1Ap   -89.200187     2Ap    -8.121046     3Ap    -6.031298
       4Ap    -6.028487     1App   -6.021823     5Ap    -0.854426
       6Ap    -0.534410     7Ap    -0.458319     2App   -0.350866

  @DF-RKS Final Energy:  -399.36126526579221

   => Energetics <=

    Nuclear Repulsion Energy =             12.8411660416974485
    One-Electron Energy =                -576.6172225706822019
    Two-Electron Energy =                 184.5034782931180359
    DFT Exchange-Correlation Energy =     -20.1645071855292599
    Empirical Dispersion Energy =           0.0000000000000000
    VV10 Nonlocal Energy =                  0.0758201556037436
    Total Energy =                       -399.3612652657922126

  Dipole Moment: [D]
     X:     0.0000      Y:    -0.0005      Z:     1.1843     Total:     1.1843

  Vibration                       7                   8                   9
  Freq [cm^-1]                1196.9517           2692.1081           2724.8401
  Irrep                           A1                  B2                  A1
  Reduced mass [u]              1.0390              1.0396              1.0363
  Force const [mDyne/A]         0.8770              4.4393              4.5332

  ==> Thermochemistry Components <==

  Entropy, S
    Electronic S            0.000 [cal/(mol K)]        0.000 [J/(mol K)]       0.00000000 [mEh/K] (multiplicity = 1)
    Translational S        36.501 [cal/(mol K)]      152.721 [J/(mol K)]       0.05816835 [mEh/K] (mol. weight = 33.9877 [u], P = 101325.00 [Pa])
    Rotational S           12.618 [cal/(mol K)]       52.795 [J/(mol K)]       0.02010837 [mEh/K] (symmetry no. = 2)
    Vibrational S           0.042 [cal/(mol K)]        0.176 [J/(mol K)]       0.00006692 [mEh/K]
  Total S                  49.161 [cal/(mol K)]      205.691 [J/(mol K)]       0.07834365 [mEh/K]
  Correction S              0.000 [cal/(mol K)]        0.000 [J/(mol K)]       0.00000000 [mEh/K]

  Constant volume heat capacity, Cv
    Electronic Cv           0.000 [cal/(mol K)]        0.000 [J/(mol K)]       0.00000000 [mEh/K]
    Translational Cv        2.981 [cal/(mol K)]       12.472 [J/(mol K)]       0.00475022 [mEh/K]
    Rotational Cv           2.981 [cal/(mol K)]       12.472 [J/(mol K)]       0.00475022 [mEh/K]
    Vibrational Cv          0.208 [cal/(mol K)]        0.872 [J/(mol K)]       0.00033194 [mEh/K]
  Total Cv                  6.170 [cal/(mol K)]       25.815 [J/(mol K)]       0.00983237 [mEh/K]
  Correction Cv             0.000 [cal/(mol K)]        0.000 [J/(mol K)]       0.00000000 [mEh/K]

  Constant pressure heat capacity, Cp
    Electronic Cp           0.000 [cal/(mol K)]        0.000 [J/(mol K)]       0.00000000 [mEh/K]
    Translational Cp        4.968 [cal/(mol K)]       20.786 [J/(mol K)]       0.00791703 [mEh/K]
    Rotational Cp           2.981 [cal/(mol K)]       12.472 [J/(mol K)]       0.00475022 [mEh/K]
    Vibrational Cp          0.208 [cal/(mol K)]        0.872 [J/(mol K)]       0.00033194 [mEh/K]
  Total Cp                  8.157 [cal/(mol K)]       34.129 [J/(mol K)]       0.01299918 [mEh/K]
  Correction Cp             0.000 [cal/(mol K)]        0.000 [J/(mol K)]       0.00000000 [mEh/K]

  ==> Thermochemistry Energy Analysis <==

  Raw electronic energy, E0
  Total E0, Electronic energy at well bottom at 0 [K]                 -399.36126869 [Eh]

  Zero-point energy, ZPE_vib = Sum_i nu_i / 2
    Electronic ZPE          0.000 [kcal/mol]        0.000 [kJ/mol]       0.00000000 [Eh]
    Translational ZPE       0.000 [kcal/mol]        0.000 [kJ/mol]       0.00000000 [Eh]
    Rotational ZPE          0.000 [kcal/mol]        0.000 [kJ/mol]       0.00000000 [Eh]
    Vibrational ZPE         9.455 [kcal/mol]       39.560 [kJ/mol]       0.01506757 [Eh]        3306.950 [cm^-1]
  Correction ZPE            9.455 [kcal/mol]       39.560 [kJ/mol]       0.01506757 [Eh]        3306.950 [cm^-1]
  Total ZPE, Electronic energy at 0 [K]                               -399.34620112 [Eh]

  Thermal Energy, E (includes ZPE)
    Electronic E            0.000 [kcal/mol]        0.000 [kJ/mol]       0.00000000 [Eh]
    Translational E         0.889 [kcal/mol]        3.718 [kJ/mol]       0.00141628 [Eh]
    Rotational E            0.889 [kcal/mol]        3.718 [kJ/mol]       0.00141628 [Eh]
    Vibrational E           9.466 [kcal/mol]       39.605 [kJ/mol]       0.01508459 [Eh]
  Correction E             11.243 [kcal/mol]       47.041 [kJ/mol]       0.01791714 [Eh]
  Total E, Electronic energy at  298.15 [K]                           -399.34335155 [Eh]

  Enthalpy, H_trans = E_trans + k_B * T
    Electronic H            0.000 [kcal/mol]        0.000 [kJ/mol]       0.00000000 [Eh]
    Translational H         1.481 [kcal/mol]        6.197 [kJ/mol]       0.00236046 [Eh]
    Rotational H            0.889 [kcal/mol]        3.718 [kJ/mol]       0.00141628 [Eh]
    Vibrational H           9.466 [kcal/mol]       39.605 [kJ/mol]       0.01508459 [Eh]
  Correction H             11.836 [kcal/mol]       49.520 [kJ/mol]       0.01886133 [Eh]
  Total H, Enthalpy at  298.15 [K]                                    -399.34240737 [Eh]

  Gibbs free energy, G = H - T * S
    Electronic G            0.000 [kcal/mol]        0.000 [kJ/mol]       0.00000000 [Eh]
    Translational G        -9.402 [kcal/mol]      -39.336 [kJ/mol]      -0.01498243 [Eh]
    Rotational G           -2.873 [kcal/mol]      -12.022 [kJ/mol]      -0.00457903 [Eh]
    Vibrational G           9.453 [kcal/mol]       39.552 [kJ/mol]       0.01506464 [Eh]
  Correction G             -2.822 [kcal/mol]      -11.806 [kJ/mol]      -0.00449683 [Eh]
  Total G, Free enthalpy at  298.15 [K]                               -399.36576553 [Eh]

*** Psi4 exiting successfully. Buy a developer a beer!
