                               Psi4 1.3.2 release

  ==> Input File <==

--------------------------------------------------------------------------
memory 144 GB

molecule {
0 1
Cl 0.0000000000 0.0000000000 0.0000000000
H 0.0000000000 0.0000000000 1.2756042300
}

set dynamic_level 1
set basis cc-pV(D+d)Z

optimize("wB97M-V")
frequencies("wB97M-V")
--------------------------------------------------------------------------

    Molecular point group: c2v
  Charge       = 0
  Multiplicity = 1
  Basis Set: CC-PV(D+D)Z
    Blend: CC-PV(D+D)Z
  Basis Set: (CC-PV(D+D)Z AUX)
    Blend: CC-PVDZ-JKFIT
  @DF-RKS Final Energy:  -460.77884408202704
    Total Energy =                       -460.7788440820270353
    Molecular point group: c2v
  Basis Set: CC-PV(D+D)Z
    Blend: CC-PV(D+D)Z
  Basis Set: (CC-PV(D+D)Z AUX)
    Blend: CC-PVDZ-JKFIT
  @DF-RKS Final Energy:  -460.77887800387111
    Total Energy =                       -460.7788780038711707
  Basis Set: CC-PV(D+D)Z
    Blend: CC-PV(D+D)Z
  Basis Set: (CC-PV(D+D)Z AUX)
    Blend: CC-PVDZ-JKFIT
  @DF-RKS Final Energy:  -460.77880111018106
    Total Energy =                       -460.7788011101810071
  Basis Set: CC-PV(D+D)Z
    Blend: CC-PV(D+D)Z
  Basis Set: (CC-PV(D+D)Z AUX)
    Blend: CC-PVDZ-JKFIT
  @DF-RKS Final Energy:  -460.77892705999670
    Total Energy =                       -460.7789270599966471
  @DF-RKS Final Energy:  -460.77892051631613
    Total Energy =                       -460.7789205163161910
  @DF-RKS Final Energy:  -460.77892514689358
    Total Energy =                       -460.7789251468936413
  @DF-RKS Final Energy:  -460.77892738163587
    Total Energy =                       -460.7789273816358673
  @DF-RKS Final Energy:  -460.77892306333916
    Total Energy =                       -460.7789230633392208
  @DF-RKS Final Energy:  -460.77892321031749
    Total Energy =                       -460.7789232103174868
  **** Optimization is complete! (in 3 steps) ****
    Final optimized geometry and variables:
  @DF-RKS Final Energy:  -460.77892738163598
    Total Energy =                       -460.7789273816359810
  @DF-RKS Final Energy:  -460.77892306333916
    Total Energy =                       -460.7789230633391639
  Basis Set: CC-PV(D+D)Z
    Blend: CC-PV(D+D)Z
  Basis Set: (CC-PV(D+D)Z AUX)
    Blend: CC-PVDZ-JKFIT
  @DF-RKS Final Energy:  -460.77892321031743
    Total Energy =                       -460.7789232103173731
  Basis Set: CC-PV(D+D)Z
    Blend: CC-PV(D+D)Z
  Basis Set: (CC-PV(D+D)Z AUX)
    Blend: CC-PVDZ-JKFIT
  @DF-RKS Final Energy:  -460.77892738163615
    Total Energy =                       -460.7789273816361515
  Multiplicity = 1
  Basis Set: CC-PV(D+D)Z
    Blend: CC-PV(D+D)Z
  Basis Set: (CC-PV(D+D)Z AUX)
    Blend: CC-PVDZ-JKFIT
  @DF-RKS Final Energy:  -460.77892306333871
    Total Energy =                       -460.7789230633387092
    Molecular point group: c2v

    Geometry (in Angstrom), charge = 0, multiplicity = 1:

       Center              X                  Y                   Z               Mass
    ------------   -----------------  -----------------  -----------------  -----------------
         CL           0.000000000000     0.000000000000    -0.035987991959    34.968852682000
         H            0.000000000000     0.000000000000     1.248687767122     1.007825032230

  Charge       = 0
  Multiplicity = 1
  Basis Set: CC-PV(D+D)Z
    Blend: CC-PV(D+D)Z
  Basis Set: (CC-PV(D+D)Z AUX)
    Blend: CC-PVDZ-JKFIT

    Orbital Energies [Eh]
    ---------------------

    Doubly Occupied:

       1A1  -101.885145     2A1    -9.649962     3A1    -7.354739
       1B1    -7.345549     1B2    -7.345549     4A1    -0.959033
       5A1    -0.565499     2B1    -0.424957     2B2    -0.424957

  @DF-RKS Final Energy:  -460.77892321031749

   => Energetics <=

    Nuclear Repulsion Energy =              7.0025549387080570
    One-Electron Energy =                -649.9027495646599846
    Two-Electron Energy =                 204.0635482573393631
    DFT Exchange-Correlation Energy =     -22.0187342424156860
    Empirical Dispersion Energy =           0.0000000000000000
    VV10 Nonlocal Energy =                  0.0764574007107241
    Total Energy =                       -460.7789232103175436

  Dipole Moment: [D]
     X:     0.0000      Y:     0.0000      Z:     1.3118     Total:     1.3118

  Vibration                       6
  Freq [cm^-1]                2995.5619
  Irrep                           A1
  Reduced mass [u]              1.0360
  Force const [mDyne/A]         5.4774

  ==> Thermochemistry Components <==

  Entropy, S
    Electronic S            0.000 [cal/(mol K)]        0.000 [J/(mol K)]       0.00000000 [mEh/K] (multiplicity = 1)
    Translational S        36.671 [cal/(mol K)]      153.430 [J/(mol K)]       0.05843851 [mEh/K] (mol. weight = 35.9767 [u], P = 101325.00 [Pa])
    Rotational S            7.936 [cal/(mol K)]       33.204 [J/(mol K)]       0.01264682 [mEh/K] (symmetry no. = 1)
    Vibrational S           0.000 [cal/(mol K)]        0.000 [J/(mol K)]       0.00000003 [mEh/K]
  Total S                  44.607 [cal/(mol K)]      186.635 [J/(mol K)]       0.07108535 [mEh/K]
  Correction S              0.000 [cal/(mol K)]        0.000 [J/(mol K)]       0.00000000 [mEh/K]

  Constant volume heat capacity, Cv
    Electronic Cv           0.000 [cal/(mol K)]        0.000 [J/(mol K)]       0.00000000 [mEh/K]
    Translational Cv        2.981 [cal/(mol K)]       12.472 [J/(mol K)]       0.00475022 [mEh/K]
    Rotational Cv           1.987 [cal/(mol K)]        8.314 [J/(mol K)]       0.00316681 [mEh/K]
    Vibrational Cv          0.000 [cal/(mol K)]        0.001 [J/(mol K)]       0.00000035 [mEh/K]
  Total Cv                  4.968 [cal/(mol K)]       20.787 [J/(mol K)]       0.00791738 [mEh/K]
  Correction Cv             0.000 [cal/(mol K)]        0.000 [J/(mol K)]       0.00000000 [mEh/K]

  Constant pressure heat capacity, Cp
    Electronic Cp           0.000 [cal/(mol K)]        0.000 [J/(mol K)]       0.00000000 [mEh/K]
    Translational Cp        4.968 [cal/(mol K)]       20.786 [J/(mol K)]       0.00791703 [mEh/K]
    Rotational Cp           1.987 [cal/(mol K)]        8.314 [J/(mol K)]       0.00316681 [mEh/K]
    Vibrational Cp          0.000 [cal/(mol K)]        0.001 [J/(mol K)]       0.00000035 [mEh/K]
  Total Cp                  6.955 [cal/(mol K)]       29.102 [J/(mol K)]       0.01108419 [mEh/K]
  Correction Cp             0.000 [cal/(mol K)]        0.000 [J/(mol K)]       0.00000000 [mEh/K]

  ==> Thermochemistry Energy Analysis <==

  Raw electronic energy, E0
  Total E0, Electronic energy at well bottom at 0 [K]                 -460.77892738 [Eh]

  Zero-point energy, ZPE_vib = Sum_i nu_i / 2
    Electronic ZPE          0.000 [kcal/mol]        0.000 [kJ/mol]       0.00000000 [Eh]
    Translational ZPE       0.000 [kcal/mol]        0.000 [kJ/mol]       0.00000000 [Eh]
    Rotational ZPE          0.000 [kcal/mol]        0.000 [kJ/mol]       0.00000000 [Eh]
    Vibrational ZPE         4.282 [kcal/mol]       17.917 [kJ/mol]       0.00682439 [Eh]        1497.781 [cm^-1]
  Correction ZPE            4.282 [kcal/mol]       17.917 [kJ/mol]       0.00682439 [Eh]        1497.781 [cm^-1]
  Total ZPE, Electronic energy at 0 [K]                               -460.77210299 [Eh]

  Thermal Energy, E (includes ZPE)
    Electronic E            0.000 [kcal/mol]        0.000 [kJ/mol]       0.00000000 [Eh]
    Translational E         0.889 [kcal/mol]        3.718 [kJ/mol]       0.00141628 [Eh]
    Rotational E            0.592 [kcal/mol]        2.479 [kJ/mol]       0.00094418 [Eh]
    Vibrational E           4.282 [kcal/mol]       17.917 [kJ/mol]       0.00682440 [Eh]
  Correction E              5.764 [kcal/mol]       24.115 [kJ/mol]       0.00918486 [Eh]
  Total E, Electronic energy at  298.15 [K]                           -460.76974252 [Eh]

  Enthalpy, H_trans = E_trans + k_B * T
    Electronic H            0.000 [kcal/mol]        0.000 [kJ/mol]       0.00000000 [Eh]
    Translational H         1.481 [kcal/mol]        6.197 [kJ/mol]       0.00236046 [Eh]
    Rotational H            0.592 [kcal/mol]        2.479 [kJ/mol]       0.00094418 [Eh]
    Vibrational H           4.282 [kcal/mol]       17.917 [kJ/mol]       0.00682440 [Eh]
  Correction H              6.356 [kcal/mol]       26.594 [kJ/mol]       0.01012905 [Eh]
  Total H, Enthalpy at  298.15 [K]                                    -460.76879834 [Eh]

  Gibbs free energy, G = H - T * S
    Electronic G            0.000 [kcal/mol]        0.000 [kJ/mol]       0.00000000 [Eh]
    Translational G        -9.452 [kcal/mol]      -39.548 [kJ/mol]      -0.01506298 [Eh]
    Rotational G           -1.774 [kcal/mol]       -7.421 [kJ/mol]      -0.00282646 [Eh]
    Vibrational G           4.282 [kcal/mol]       17.917 [kJ/mol]       0.00682439 [Eh]
  Correction G             -6.943 [kcal/mol]      -29.051 [kJ/mol]      -0.01106505 [Eh]
  Total G, Free enthalpy at  298.15 [K]                               -460.78999243 [Eh]

*** Psi4 exiting successfully. Buy a developer a beer!
