                               Psi4 1.3.2 release

  ==> Input File <==

--------------------------------------------------------------------------
memory 144 GB

molecule {
0 1
H 0.0000000000 0.0000000000 0.0000000000
C 0.0000000000 0.0000000000 1.0668000000
N 0.0000000000 0.0000000000 2.2232000000
}

set dynamic_level 1
set basis cc-pV(D+d)Z

optimize("wB97M-V")
frequencies("wB97M-V")
--------------------------------------------------------------------------

    Molecular point group: c2v
  Charge       = 0
  Multiplicity = 1
  Basis Set: CC-PV(D+D)Z
    Blend: CC-PV(D+D)Z
  Basis Set: (CC-PV(D+D)Z AUX)
    Blend: CC-PVDZ-JKFIT
  @DF-RKS Final Energy:   -93.39952281608527
    Total Energy =                        -93.3995228160852804
    Molecular point group: c2v
  Basis Set: CC-PV(D+D)Z
    Blend: CC-PV(D+D)Z
  Basis Set: (CC-PV(D+D)Z AUX)
    Blend: CC-PVDZ-JKFIT
  @DF-RKS Final Energy:   -93.39955480501057
    Total Energy =                        -93.3995548050105810
  Basis Set: CC-PV(D+D)Z
    Blend: CC-PV(D+D)Z
  Basis Set: (CC-PV(D+D)Z AUX)
    Blend: CC-PVDZ-JKFIT
  @DF-RKS Final Energy:   -93.39947974521223
    Total Energy =                        -93.3994797452122327
  Basis Set: CC-PV(D+D)Z
    Blend: CC-PV(D+D)Z
  Basis Set: (CC-PV(D+D)Z AUX)
    Blend: CC-PVDZ-JKFIT
  @DF-RKS Final Energy:   -93.39950603247094
    Total Energy =                        -93.3995060324709385
  @DF-RKS Final Energy:   -93.39953392996996
    Total Energy =                        -93.3995339299699765
  @DF-RKS Final Energy:   -93.39958952657567
    Total Energy =                        -93.3995895265756815
  @DF-RKS Final Energy:   -93.39958001974607
    Total Energy =                        -93.3995800197460539
  @DF-RKS Final Energy:   -93.39958858541883
    Total Energy =                        -93.3995885854188259
  @DF-RKS Final Energy:   -93.39958828589383
    Total Energy =                        -93.3995882858938273
  @DF-RKS Final Energy:   -93.39958508418174
    Total Energy =                        -93.3995850841817372
  @DF-RKS Final Energy:   -93.39959045154660
    Total Energy =                        -93.3995904515466009
  @DF-RKS Final Energy:   -93.39958508368645
    Total Energy =                        -93.3995850836864321
  @DF-RKS Final Energy:   -93.39958530810512
    Total Energy =                        -93.3995853081051308
  @DF-RKS Final Energy:   -93.39958763215532
    Total Energy =                        -93.3995876321552885
  @DF-RKS Final Energy:   -93.39958758958555
    Total Energy =                        -93.3995875895855647
  **** Optimization is complete! (in 3 steps) ****
    Final optimized geometry and variables:
  @DF-RKS Final Energy:   -93.39959045154654
    Total Energy =                        -93.3995904515465440
  @DF-RKS Final Energy:   -93.39958508376304
    Total Energy =                        -93.3995850837630286
  @DF-RKS Final Energy:   -93.39958530818052
    Total Energy =                        -93.3995853081805194
  @DF-RKS Final Energy:   -93.39958763214733
    Total Energy =                        -93.3995876321473304
  @DF-RKS Final Energy:   -93.39958758966885
    Total Energy =                        -93.3995875896688545
  @DF-RKS Final Energy:   -93.39959045154659
    Total Energy =                        -93.3995904515465867
  @DF-RKS Final Energy:   -93.39958508376301
    Total Energy =                        -93.3995850837630144
  @DF-RKS Final Energy:   -93.39958530818038
    Total Energy =                        -93.3995853081803773
  @DF-RKS Final Energy:   -93.39958763214729
    Total Energy =                        -93.3995876321472736
  @DF-RKS Final Energy:   -93.39958758966887
    Total Energy =                        -93.3995875896688688
  Basis Set: CC-PV(D+D)Z
    Blend: CC-PV(D+D)Z
  Basis Set: (CC-PV(D+D)Z AUX)
    Blend: CC-PVDZ-JKFIT
  @DF-RKS Final Energy:   -93.39958480110488
    Total Energy =                        -93.3995848011048793
  Basis Set: CC-PV(D+D)Z
    Blend: CC-PV(D+D)Z
  Basis Set: (CC-PV(D+D)Z AUX)
    Blend: CC-PVDZ-JKFIT
  @DF-RKS Final Energy:   -93.39958459233755
    Total Energy =                        -93.3995845923375327
  Multiplicity = 1
  Basis Set: CC-PV(D+D)Z
    Blend: CC-PV(D+D)Z
  Basis Set: (CC-PV(D+D)Z AUX)
    Blend: CC-PVDZ-JKFIT
  @DF-RKS Final Energy:   -93.39959016854779
    Total Energy =                        -93.3995901685477747
    Molecular point group: cs

    Geometry (in Angstrom), charge = 0, multiplicity = 1:

       Center              X                  Y                   Z               Mass
    ------------   -----------------  -----------------  -----------------  -----------------
         H            0.000000000000    -0.002247012358    -1.634891389134     1.007825032230
         C            0.000000000000     0.000364504725    -0.558764870406    12.000000000000
         N            0.000000000000    -0.000150642737     0.596502090125    14.003074004430

  Charge       = 0
  Multiplicity = 1
  Basis Set: CC-PV(D+D)Z
    Blend: CC-PV(D+D)Z
  Basis Set: (CC-PV(D+D)Z AUX)
    Blend: CC-PVDZ-JKFIT

    Orbital Energies [Eh]
    ---------------------

    Doubly Occupied:

       1Ap   -14.543691     2Ap   -10.413211     3Ap    -1.044942
       4Ap    -0.709908     5Ap    -0.488662     1App   -0.460831
       6Ap    -0.460831

  @DF-RKS Final Energy:   -93.39959016852991

   => Energetics <=

    Nuclear Repulsion Energy =             23.8488620928621415
    One-Electron Energy =                -172.6525503924136160
    Two-Electron Energy =                  64.2967708072488335
    DFT Exchange-Correlation Energy =      -8.9511018974229835
    Empirical Dispersion Energy =           0.0000000000000000
    VV10 Nonlocal Energy =                  0.0584292211957175
    Total Energy =                        -93.3995901685299117

  Dipole Moment: [D]
     X:     0.0000      Y:    -0.0024      Z:    -2.8300     Total:     2.8300

  Vibration                       6                   7                   8
  Freq [cm^-1]                 773.4666            773.4910           2236.5744
  Irrep                           B1                  B2                  A1
  Reduced mass [u]              1.3451              1.3451              4.9710
  Force const [mDyne/A]         0.4741              0.4741             14.6507

  Vibration                       9
  Freq [cm^-1]                3480.3558
  Irrep                           A1
  Reduced mass [u]              1.1980
  Force const [mDyne/A]         8.5495

  ==> Thermochemistry Components <==

  Entropy, S
    Electronic S            0.000 [cal/(mol K)]        0.000 [J/(mol K)]       0.00000000 [mEh/K] (multiplicity = 1)
    Translational S        35.816 [cal/(mol K)]      149.856 [J/(mol K)]       0.05707695 [mEh/K] (mol. weight = 27.0109 [u], P = 101325.00 [Pa])
    Rotational S           11.813 [cal/(mol K)]       49.426 [J/(mol K)]       0.01882549 [mEh/K] (symmetry no. = 1)
    Vibrational S           0.460 [cal/(mol K)]        1.927 [J/(mol K)]       0.00073381 [mEh/K]
  Total S                  48.090 [cal/(mol K)]      201.208 [J/(mol K)]       0.07663625 [mEh/K]
  Correction S              0.000 [cal/(mol K)]        0.000 [J/(mol K)]       0.00000000 [mEh/K]

  Constant volume heat capacity, Cv
    Electronic Cv           0.000 [cal/(mol K)]        0.000 [J/(mol K)]       0.00000000 [mEh/K]
    Translational Cv        2.981 [cal/(mol K)]       12.472 [J/(mol K)]       0.00475022 [mEh/K]
    Rotational Cv           1.987 [cal/(mol K)]        8.314 [J/(mol K)]       0.00316681 [mEh/K]
    Vibrational Cv          1.396 [cal/(mol K)]        5.840 [J/(mol K)]       0.00222416 [mEh/K]
  Total Cv                  6.364 [cal/(mol K)]       26.626 [J/(mol K)]       0.01014118 [mEh/K]
  Correction Cv             0.000 [cal/(mol K)]        0.000 [J/(mol K)]       0.00000000 [mEh/K]

  Constant pressure heat capacity, Cp
    Electronic Cp           0.000 [cal/(mol K)]        0.000 [J/(mol K)]       0.00000000 [mEh/K]
    Translational Cp        4.968 [cal/(mol K)]       20.786 [J/(mol K)]       0.00791703 [mEh/K]
    Rotational Cp           1.987 [cal/(mol K)]        8.314 [J/(mol K)]       0.00316681 [mEh/K]
    Vibrational Cp          1.396 [cal/(mol K)]        5.840 [J/(mol K)]       0.00222416 [mEh/K]
  Total Cp                  8.351 [cal/(mol K)]       34.940 [J/(mol K)]       0.01330799 [mEh/K]
  Correction Cp             0.000 [cal/(mol K)]        0.000 [J/(mol K)]       0.00000000 [mEh/K]

  ==> Thermochemistry Energy Analysis <==

  Raw electronic energy, E0
  Total E0, Electronic energy at well bottom at 0 [K]                  -93.39959045 [Eh]

  Zero-point energy, ZPE_vib = Sum_i nu_i / 2
    Electronic ZPE          0.000 [kcal/mol]        0.000 [kJ/mol]       0.00000000 [Eh]
    Translational ZPE       0.000 [kcal/mol]        0.000 [kJ/mol]       0.00000000 [Eh]
    Rotational ZPE          0.000 [kcal/mol]        0.000 [kJ/mol]       0.00000000 [Eh]
    Vibrational ZPE        10.384 [kcal/mol]       43.448 [kJ/mol]       0.01654835 [Eh]        3631.944 [cm^-1]
  Correction ZPE           10.384 [kcal/mol]       43.448 [kJ/mol]       0.01654835 [Eh]        3631.944 [cm^-1]
  Total ZPE, Electronic energy at 0 [K]                                -93.38304210 [Eh]

  Thermal Energy, E (includes ZPE)
    Electronic E            0.000 [kcal/mol]        0.000 [kJ/mol]       0.00000000 [Eh]
    Translational E         0.889 [kcal/mol]        3.718 [kJ/mol]       0.00141628 [Eh]
    Rotational E            0.592 [kcal/mol]        2.479 [kJ/mol]       0.00094418 [Eh]
    Vibrational E          10.493 [kcal/mol]       43.902 [kJ/mol]       0.01672138 [Eh]
  Correction E             11.974 [kcal/mol]       50.099 [kJ/mol]       0.01908184 [Eh]
  Total E, Electronic energy at  298.15 [K]                            -93.38050861 [Eh]

  Enthalpy, H_trans = E_trans + k_B * T
    Electronic H            0.000 [kcal/mol]        0.000 [kJ/mol]       0.00000000 [Eh]
    Translational H         1.481 [kcal/mol]        6.197 [kJ/mol]       0.00236046 [Eh]
    Rotational H            0.592 [kcal/mol]        2.479 [kJ/mol]       0.00094418 [Eh]
    Vibrational H          10.493 [kcal/mol]       43.902 [kJ/mol]       0.01672138 [Eh]
  Correction H             12.567 [kcal/mol]       52.578 [kJ/mol]       0.02002603 [Eh]
  Total H, Enthalpy at  298.15 [K]                                     -93.37956443 [Eh]

  Gibbs free energy, G = H - T * S
    Electronic G            0.000 [kcal/mol]        0.000 [kJ/mol]       0.00000000 [Eh]
    Translational G        -9.197 [kcal/mol]      -38.482 [kJ/mol]      -0.01465703 [Eh]
    Rotational G           -2.930 [kcal/mol]      -12.257 [kJ/mol]      -0.00466863 [Eh]
    Vibrational G          10.356 [kcal/mol]       43.328 [kJ/mol]       0.01650259 [Eh]
  Correction G             -1.772 [kcal/mol]       -7.412 [kJ/mol]      -0.00282307 [Eh]
  Total G, Free enthalpy at  298.15 [K]                                -93.40241352 [Eh]

*** Psi4 exiting successfully. Buy a developer a beer!
