                               Psi4 1.3.2 release

  ==> Input File <==

--------------------------------------------------------------------------
memory 144 GB

molecule {
0 1
F 0.0000000000 0.0000000000 0.0000000000
H 0.0000000000 0.0000000000 0.9157690000
}

set dynamic_level 1
set basis cc-pV(D+d)Z

optimize("wB97M-V")
frequencies("wB97M-V")
--------------------------------------------------------------------------

    Molecular point group: c2v
  Charge       = 0
  Multiplicity = 1
  Basis Set: CC-PV(D+D)Z
    Blend: CC-PV(D+D)Z
  Basis Set: (CC-PV(D+D)Z AUX)
    Blend: CC-PVDZ-JKFIT
  @DF-RKS Final Energy:  -100.40575444650182
    Total Energy =                       -100.4057544465018168
    Molecular point group: c2v
  Basis Set: CC-PV(D+D)Z
    Blend: CC-PV(D+D)Z
  Basis Set: (CC-PV(D+D)Z AUX)
    Blend: CC-PVDZ-JKFIT
  @DF-RKS Final Energy:  -100.40580127623835
    Total Energy =                       -100.4058012762383498
  Basis Set: CC-PV(D+D)Z
    Blend: CC-PV(D+D)Z
  Basis Set: (CC-PV(D+D)Z AUX)
    Blend: CC-PVDZ-JKFIT
  @DF-RKS Final Energy:  -100.40569092158846
    Total Energy =                       -100.4056909215884588
  Basis Set: CC-PV(D+D)Z
    Blend: CC-PV(D+D)Z
  Basis Set: (CC-PV(D+D)Z AUX)
    Blend: CC-PVDZ-JKFIT
  @DF-RKS Final Energy:  -100.40584710452295
    Total Energy =                       -100.4058471045229481
  @DF-RKS Final Energy:  -100.40584282375309
    Total Energy =                       -100.4058428237530762
  @DF-RKS Final Energy:  -100.40583571196130
    Total Energy =                       -100.4058357119613163
  @DF-RKS Final Energy:  -100.40584749667532
    Total Energy =                       -100.4058474966753209
  @DF-RKS Final Energy:  -100.40583981272087
    Total Energy =                       -100.4058398127208562
  @DF-RKS Final Energy:  -100.40583957543578
    Total Energy =                       -100.4058395754357633
  **** Optimization is complete! (in 3 steps) ****
    Final optimized geometry and variables:
  @DF-RKS Final Energy:  -100.40584749667553
    Total Energy =                       -100.4058474966755341
  @DF-RKS Final Energy:  -100.40583981272097
    Total Energy =                       -100.4058398127209699
  Basis Set: CC-PV(D+D)Z
    Blend: CC-PV(D+D)Z
  Basis Set: (CC-PV(D+D)Z AUX)
    Blend: CC-PVDZ-JKFIT
  @DF-RKS Final Energy:  -100.40583957543588
    Total Energy =                       -100.4058395754358770
  Basis Set: CC-PV(D+D)Z
    Blend: CC-PV(D+D)Z
  Basis Set: (CC-PV(D+D)Z AUX)
    Blend: CC-PVDZ-JKFIT
  @DF-RKS Final Energy:  -100.40584749667551
    Total Energy =                       -100.4058474966754915
  Multiplicity = 1
  Basis Set: CC-PV(D+D)Z
    Blend: CC-PV(D+D)Z
  Basis Set: (CC-PV(D+D)Z AUX)
    Blend: CC-PVDZ-JKFIT
  @DF-RKS Final Energy:  -100.40583981272098
    Total Energy =                       -100.4058398127209841
    Molecular point group: c2v

    Geometry (in Angstrom), charge = 0, multiplicity = 1:

       Center              X                  Y                   Z               Mass
    ------------   -----------------  -----------------  -----------------  -----------------
         F            0.000000000000     0.000000000000    -0.046460774010    18.998403162730
         H            0.000000000000     0.000000000000     0.875827140297     1.007825032230

  Charge       = 0
  Multiplicity = 1
  Basis Set: CC-PV(D+D)Z
    Blend: CC-PV(D+D)Z
  Basis Set: (CC-PV(D+D)Z AUX)
    Blend: CC-PVDZ-JKFIT

    Orbital Energies [Eh]
    ---------------------

    Doubly Occupied:

       1A1   -24.880519     2A1    -1.302446     3A1    -0.627660
       1B1    -0.490130     1B2    -0.490130

  @DF-RKS Final Energy:  -100.40583957543595

   => Energetics <=

    Nuclear Repulsion Energy =              5.1638916895164506
    One-Electron Energy =                -150.6009707360505274
    Two-Electron Energy =                  52.9231991322676407
    DFT Exchange-Correlation Energy =      -7.9354222801749712
    Empirical Dispersion Energy =           0.0000000000000000
    VV10 Nonlocal Energy =                  0.0434626190054546
    Total Energy =                       -100.4058395754359623

  Dipole Moment: [D]
     X:     0.0000      Y:     0.0000      Z:     1.8101     Total:     1.8101

  Vibration                       6
  Freq [cm^-1]                4061.3354
  Irrep                           A1
  Reduced mass [u]              1.0583
  Force const [mDyne/A]        10.2849

  ==> Thermochemistry Components <==

  Entropy, S
    Electronic S            0.000 [cal/(mol K)]        0.000 [J/(mol K)]       0.00000000 [mEh/K] (multiplicity = 1)
    Translational S        34.921 [cal/(mol K)]      146.112 [J/(mol K)]       0.05565095 [mEh/K] (mol. weight = 20.0062 [u], P = 101325.00 [Pa])
    Rotational S            6.576 [cal/(mol K)]       27.514 [J/(mol K)]       0.01047950 [mEh/K] (symmetry no. = 1)
    Vibrational S           0.000 [cal/(mol K)]        0.000 [J/(mol K)]       0.00000000 [mEh/K]
  Total S                  41.497 [cal/(mol K)]      173.625 [J/(mol K)]       0.06613045 [mEh/K]
  Correction S              0.000 [cal/(mol K)]        0.000 [J/(mol K)]       0.00000000 [mEh/K]

  Constant volume heat capacity, Cv
    Electronic Cv           0.000 [cal/(mol K)]        0.000 [J/(mol K)]       0.00000000 [mEh/K]
    Translational Cv        2.981 [cal/(mol K)]       12.472 [J/(mol K)]       0.00475022 [mEh/K]
    Rotational Cv           1.987 [cal/(mol K)]        8.314 [J/(mol K)]       0.00316681 [mEh/K]
    Vibrational Cv          0.000 [cal/(mol K)]        0.000 [J/(mol K)]       0.00000000 [mEh/K]
  Total Cv                  4.968 [cal/(mol K)]       20.786 [J/(mol K)]       0.00791703 [mEh/K]
  Correction Cv             0.000 [cal/(mol K)]        0.000 [J/(mol K)]       0.00000000 [mEh/K]

  Constant pressure heat capacity, Cp
    Electronic Cp           0.000 [cal/(mol K)]        0.000 [J/(mol K)]       0.00000000 [mEh/K]
    Translational Cp        4.968 [cal/(mol K)]       20.786 [J/(mol K)]       0.00791703 [mEh/K]
    Rotational Cp           1.987 [cal/(mol K)]        8.314 [J/(mol K)]       0.00316681 [mEh/K]
    Vibrational Cp          0.000 [cal/(mol K)]        0.000 [J/(mol K)]       0.00000000 [mEh/K]
  Total Cp                  6.955 [cal/(mol K)]       29.101 [J/(mol K)]       0.01108384 [mEh/K]
  Correction Cp             0.000 [cal/(mol K)]        0.000 [J/(mol K)]       0.00000000 [mEh/K]

  ==> Thermochemistry Energy Analysis <==

  Raw electronic energy, E0
  Total E0, Electronic energy at well bottom at 0 [K]                 -100.40584750 [Eh]

  Zero-point energy, ZPE_vib = Sum_i nu_i / 2
    Electronic ZPE          0.000 [kcal/mol]        0.000 [kJ/mol]       0.00000000 [Eh]
    Translational ZPE       0.000 [kcal/mol]        0.000 [kJ/mol]       0.00000000 [Eh]
    Rotational ZPE          0.000 [kcal/mol]        0.000 [kJ/mol]       0.00000000 [Eh]
    Vibrational ZPE         5.806 [kcal/mol]       24.292 [kJ/mol]       0.00925240 [Eh]        2030.668 [cm^-1]
  Correction ZPE            5.806 [kcal/mol]       24.292 [kJ/mol]       0.00925240 [Eh]        2030.668 [cm^-1]
  Total ZPE, Electronic energy at 0 [K]                               -100.39659509 [Eh]

  Thermal Energy, E (includes ZPE)
    Electronic E            0.000 [kcal/mol]        0.000 [kJ/mol]       0.00000000 [Eh]
    Translational E         0.889 [kcal/mol]        3.718 [kJ/mol]       0.00141628 [Eh]
    Rotational E            0.592 [kcal/mol]        2.479 [kJ/mol]       0.00094418 [Eh]
    Vibrational E           5.806 [kcal/mol]       24.292 [kJ/mol]       0.00925240 [Eh]
  Correction E              7.287 [kcal/mol]       30.490 [kJ/mol]       0.01161286 [Eh]
  Total E, Electronic energy at  298.15 [K]                           -100.39423463 [Eh]

  Enthalpy, H_trans = E_trans + k_B * T
    Electronic H            0.000 [kcal/mol]        0.000 [kJ/mol]       0.00000000 [Eh]
    Translational H         1.481 [kcal/mol]        6.197 [kJ/mol]       0.00236046 [Eh]
    Rotational H            0.592 [kcal/mol]        2.479 [kJ/mol]       0.00094418 [Eh]
    Vibrational H           5.806 [kcal/mol]       24.292 [kJ/mol]       0.00925240 [Eh]
  Correction H              7.880 [kcal/mol]       32.969 [kJ/mol]       0.01255705 [Eh]
  Total H, Enthalpy at  298.15 [K]                                    -100.39329045 [Eh]

  Gibbs free energy, G = H - T * S
    Electronic G            0.000 [kcal/mol]        0.000 [kJ/mol]       0.00000000 [Eh]
    Translational G        -8.931 [kcal/mol]      -37.366 [kJ/mol]      -0.01423187 [Eh]
    Rotational G           -1.368 [kcal/mol]       -5.724 [kJ/mol]      -0.00218028 [Eh]
    Vibrational G           5.806 [kcal/mol]       24.292 [kJ/mol]       0.00925240 [Eh]
  Correction G             -4.493 [kcal/mol]      -18.798 [kJ/mol]      -0.00715975 [Eh]
  Total G, Free enthalpy at  298.15 [K]                               -100.41300724 [Eh]

*** Psi4 exiting successfully. Buy a developer a beer!
