                               Psi4 1.3.2 release

  ==> Input File <==

--------------------------------------------------------------------------
memory 144 GB

molecule {
0 1
N 0.0000000000 0.0000000000 0.0000000000
H 0.0000000000 0.0000000000 1.0535284100
O 1.1513717966 0.0000000000 -0.3743228181
}

set dynamic_level 1
set basis cc-pV(D+d)Z

optimize("wB97M-V")
frequencies("wB97M-V")
--------------------------------------------------------------------------

    Molecular point group: cs
  Charge       = 0
  Multiplicity = 1
  Basis Set: CC-PV(D+D)Z
    Blend: CC-PV(D+D)Z
  Basis Set: (CC-PV(D+D)Z AUX)
    Blend: CC-PVDZ-JKFIT
  @DF-RKS Final Energy:  -130.44413482836603
    Total Energy =                       -130.4441348283660318
    Molecular point group: cs
  Basis Set: CC-PV(D+D)Z
    Blend: CC-PV(D+D)Z
  Basis Set: (CC-PV(D+D)Z AUX)
    Blend: CC-PVDZ-JKFIT
  @DF-RKS Final Energy:  -130.44416098057110
    Total Energy =                       -130.4441609805710982
  Basis Set: CC-PV(D+D)Z
    Blend: CC-PV(D+D)Z
  Basis Set: (CC-PV(D+D)Z AUX)
    Blend: CC-PVDZ-JKFIT
  @DF-RKS Final Energy:  -130.44410605800454
    Total Energy =                       -130.4441060580045360
  Basis Set: CC-PV(D+D)Z
    Blend: CC-PV(D+D)Z
  Basis Set: (CC-PV(D+D)Z AUX)
    Blend: CC-PVDZ-JKFIT
  @DF-RKS Final Energy:  -130.44417475588031
    Total Energy =                       -130.4441747558803115
  @DF-RKS Final Energy:  -130.44408941288125
    Total Energy =                       -130.4440894128812545
  @DF-RKS Final Energy:  -130.44410826087935
    Total Energy =                       -130.4441082608793465
  @DF-RKS Final Energy:  -130.44415581908115
    Total Energy =                       -130.4441558190811747
  @DF-RKS Final Energy:  -130.44441259245872
    Total Energy =                       -130.4444125924587183
  @DF-RKS Final Energy:  -130.44442051737937
    Total Energy =                       -130.4444205173793989
  @DF-RKS Final Energy:  -130.44440188947834
    Total Energy =                       -130.4444018894783426
  @DF-RKS Final Energy:  -130.44441183969073
    Total Energy =                       -130.4444118396907015
  @DF-RKS Final Energy:  -130.44440817539109
    Total Energy =                       -130.4444081753911178
  @DF-RKS Final Energy:  -130.44439313205461
    Total Energy =                       -130.4443931320545857
  @DF-RKS Final Energy:  -130.44442677090041
    Total Energy =                       -130.4444267709004066
  @DF-RKS Final Energy:  -130.44445180842280
    Total Energy =                       -130.4444518084227695
  @DF-RKS Final Energy:  -130.44444455802622
    Total Energy =                       -130.4444445580262197
  @DF-RKS Final Energy:  -130.44445620073355
    Total Energy =                       -130.4444562007335264
  @DF-RKS Final Energy:  -130.44445161526392
    Total Energy =                       -130.4444516152639153
  @DF-RKS Final Energy:  -130.44444710702794
    Total Energy =                       -130.4444471070279405
  @DF-RKS Final Energy:  -130.44445594761365
    Total Energy =                       -130.4444559476136476
  **** Optimization is complete! (in 4 steps) ****
    Final optimized geometry and variables:
  @DF-RKS Final Energy:  -130.44446826456041
    Total Energy =                       -130.4444682645604132
  @DF-RKS Final Energy:  -130.44446676057646
    Total Energy =                       -130.4444667605764607
  @DF-RKS Final Energy:  -130.44446693902205
    Total Energy =                       -130.4444669390220213
  @DF-RKS Final Energy:  -130.44446586634646
    Total Energy =                       -130.4444658663464622
  @DF-RKS Final Energy:  -130.44446569401865
    Total Energy =                       -130.4444656940186746
  @DF-RKS Final Energy:  -130.44446570764765
    Total Energy =                       -130.4444657076476233
  @DF-RKS Final Energy:  -130.44446568735259
    Total Energy =                       -130.4444656873526185
  @DF-RKS Final Energy:  -130.44446826456058
    Total Energy =                       -130.4444682645605837
  @DF-RKS Final Energy:  -130.44446676057643
    Total Energy =                       -130.4444667605764323
  @DF-RKS Final Energy:  -130.44446693902211
    Total Energy =                       -130.4444669390221065
  @DF-RKS Final Energy:  -130.44446586634641
    Total Energy =                       -130.4444658663464054
  @DF-RKS Final Energy:  -130.44446569401862
    Total Energy =                       -130.4444656940186178
  @DF-RKS Final Energy:  -130.44446570764771
    Total Energy =                       -130.4444657076476801
  @DF-RKS Final Energy:  -130.44446568735268
    Total Energy =                       -130.4444656873527038
  @DF-RKS Final Energy:  -130.44446460217543
    Total Energy =                       -130.4444646021754579
  @DF-RKS Final Energy:  -130.44446459830792
    Total Energy =                       -130.4444645983079170
  Basis Set: CC-PV(D+D)Z
    Blend: CC-PV(D+D)Z
  Basis Set: (CC-PV(D+D)Z AUX)
    Blend: CC-PVDZ-JKFIT
  @DF-RKS Final Energy:  -130.44446384744504
    Total Energy =                       -130.4444638474450358
  Basis Set: CC-PV(D+D)Z
    Blend: CC-PV(D+D)Z
  Basis Set: (CC-PV(D+D)Z AUX)
    Blend: CC-PVDZ-JKFIT
  @DF-RKS Final Energy:  -130.44446368280015
    Total Energy =                       -130.4444636828001478
  Multiplicity = 1
  Basis Set: CC-PV(D+D)Z
    Blend: CC-PV(D+D)Z
  Basis Set: (CC-PV(D+D)Z AUX)
    Blend: CC-PVDZ-JKFIT
  @DF-RKS Final Energy:  -130.44446573466209
    Total Energy =                       -130.4444657346620886
    Molecular point group: cs

    Geometry (in Angstrom), charge = 0, multiplicity = 1:

       Center              X                  Y                   Z               Mass
    ------------   -----------------  -----------------  -----------------  -----------------
         N            0.588973693357     0.152899093765     0.000000000000    14.003074004430
         H            0.591045747139     1.223467107290     0.000000000000     1.007825032230
         O           -0.552870279350    -0.210948178361     0.000000000000    15.994914619570

  Charge       = 0
  Multiplicity = 1
  Basis Set: CC-PV(D+D)Z
    Blend: CC-PV(D+D)Z
  Basis Set: (CC-PV(D+D)Z AUX)
    Blend: CC-PVDZ-JKFIT

    Orbital Energies [Eh]
    ---------------------

    Doubly Occupied:

       1Ap   -19.420247     2Ap   -14.637141     3Ap    -1.304127
       4Ap    -0.834140     5Ap    -0.634235     1App   -0.561142
       6Ap    -0.554230     7Ap    -0.336862

  @DF-RKS Final Energy:  -130.44446592544847

   => Energetics <=

    Nuclear Repulsion Energy =             30.4951411998453494
    One-Electron Energy =                -238.1920677509470750
    Two-Electron Energy =                  88.5600649365739230
    DFT Exchange-Correlation Energy =     -11.3746478105967626
    Empirical Dispersion Energy =           0.0000000000000000
    VV10 Nonlocal Energy =                  0.0670434996761041
    Total Energy =                       -130.4444659254484691

  Dipole Moment: [D]
     X:     0.4484      Y:     1.5847      Z:     0.0000     Total:     1.6469

  Vibration                       7                   8                   9
  Freq [cm^-1]                1575.2116           1737.6547           2858.0777
  Irrep                           Ap                  Ap                  Ap
  Reduced mass [u]              1.1867             11.5206              1.0797
  Force const [mDyne/A]         1.7349             20.4952              5.1965

  ==> Thermochemistry Components <==

  Entropy, S
    Electronic S            0.000 [cal/(mol K)]        0.000 [J/(mol K)]       0.00000000 [mEh/K] (multiplicity = 1)
    Translational S        36.227 [cal/(mol K)]      151.576 [J/(mol K)]       0.05773217 [mEh/K] (mol. weight = 31.0058 [u], P = 101325.00 [Pa])
    Rotational S           16.488 [cal/(mol K)]       68.986 [J/(mol K)]       0.02627544 [mEh/K] (symmetry no. = 1)
    Vibrational S           0.013 [cal/(mol K)]        0.054 [J/(mol K)]       0.00002045 [mEh/K]
  Total S                  52.728 [cal/(mol K)]      220.616 [J/(mol K)]       0.08402806 [mEh/K]
  Correction S              0.000 [cal/(mol K)]        0.000 [J/(mol K)]       0.00000000 [mEh/K]

  Constant volume heat capacity, Cv
    Electronic Cv           0.000 [cal/(mol K)]        0.000 [J/(mol K)]       0.00000000 [mEh/K]
    Translational Cv        2.981 [cal/(mol K)]       12.472 [J/(mol K)]       0.00475022 [mEh/K]
    Rotational Cv           2.981 [cal/(mol K)]       12.472 [J/(mol K)]       0.00475022 [mEh/K]
    Vibrational Cv          0.090 [cal/(mol K)]        0.375 [J/(mol K)]       0.00014298 [mEh/K]
  Total Cv                  6.051 [cal/(mol K)]       25.319 [J/(mol K)]       0.00964341 [mEh/K]
  Correction Cv             0.000 [cal/(mol K)]        0.000 [J/(mol K)]       0.00000000 [mEh/K]

  Constant pressure heat capacity, Cp
    Electronic Cp           0.000 [cal/(mol K)]        0.000 [J/(mol K)]       0.00000000 [mEh/K]
    Translational Cp        4.968 [cal/(mol K)]       20.786 [J/(mol K)]       0.00791703 [mEh/K]
    Rotational Cp           2.981 [cal/(mol K)]       12.472 [J/(mol K)]       0.00475022 [mEh/K]
    Vibrational Cp          0.090 [cal/(mol K)]        0.375 [J/(mol K)]       0.00014298 [mEh/K]
  Total Cp                  8.039 [cal/(mol K)]       33.633 [J/(mol K)]       0.01281022 [mEh/K]
  Correction Cp             0.000 [cal/(mol K)]        0.000 [J/(mol K)]       0.00000000 [mEh/K]

  ==> Thermochemistry Energy Analysis <==

  Raw electronic energy, E0
  Total E0, Electronic energy at well bottom at 0 [K]                 -130.44446826 [Eh]

  Zero-point energy, ZPE_vib = Sum_i nu_i / 2
    Electronic ZPE          0.000 [kcal/mol]        0.000 [kJ/mol]       0.00000000 [Eh]
    Translational ZPE       0.000 [kcal/mol]        0.000 [kJ/mol]       0.00000000 [Eh]
    Rotational ZPE          0.000 [kcal/mol]        0.000 [kJ/mol]       0.00000000 [Eh]
    Vibrational ZPE         8.822 [kcal/mol]       36.910 [kJ/mol]       0.01405844 [Eh]        3085.472 [cm^-1]
  Correction ZPE            8.822 [kcal/mol]       36.910 [kJ/mol]       0.01405844 [Eh]        3085.472 [cm^-1]
  Total ZPE, Electronic energy at 0 [K]                               -130.43040982 [Eh]

  Thermal Energy, E (includes ZPE)
    Electronic E            0.000 [kcal/mol]        0.000 [kJ/mol]       0.00000000 [Eh]
    Translational E         0.889 [kcal/mol]        3.718 [kJ/mol]       0.00141628 [Eh]
    Rotational E            0.889 [kcal/mol]        3.718 [kJ/mol]       0.00141628 [Eh]
    Vibrational E           8.825 [kcal/mol]       36.925 [kJ/mol]       0.01406385 [Eh]
  Correction E             10.603 [kcal/mol]       44.362 [kJ/mol]       0.01689641 [Eh]
  Total E, Electronic energy at  298.15 [K]                           -130.42757186 [Eh]

  Enthalpy, H_trans = E_trans + k_B * T
    Electronic H            0.000 [kcal/mol]        0.000 [kJ/mol]       0.00000000 [Eh]
    Translational H         1.481 [kcal/mol]        6.197 [kJ/mol]       0.00236046 [Eh]
    Rotational H            0.889 [kcal/mol]        3.718 [kJ/mol]       0.00141628 [Eh]
    Vibrational H           8.825 [kcal/mol]       36.925 [kJ/mol]       0.01406385 [Eh]
  Correction H             11.195 [kcal/mol]       46.840 [kJ/mol]       0.01784059 [Eh]
  Total H, Enthalpy at  298.15 [K]                                    -130.42662767 [Eh]

  Gibbs free energy, G = H - T * S
    Electronic G            0.000 [kcal/mol]        0.000 [kJ/mol]       0.00000000 [Eh]
    Translational G        -9.320 [kcal/mol]      -38.995 [kJ/mol]      -0.01485238 [Eh]
    Rotational G           -4.027 [kcal/mol]      -16.850 [kJ/mol]      -0.00641775 [Eh]
    Vibrational G           8.821 [kcal/mol]       36.909 [kJ/mol]       0.01405776 [Eh]
  Correction G             -4.526 [kcal/mol]      -18.936 [kJ/mol]      -0.00721237 [Eh]
  Total G, Free enthalpy at  298.15 [K]                               -130.45168064 [Eh]

*** Psi4 exiting successfully. Buy a developer a beer!
