                               Psi4 1.3.2 release

  ==> Input File <==

--------------------------------------------------------------------------
memory 144 GB

molecule {
0 1
O 0.0000000000 0.0000000000 0.0000000000
H 0.0000000000 0.0000000000 0.9638997500
Cl 1.6530447720 0.0000000000 -0.3711121967
}

set dynamic_level 1
set basis cc-pV(D+d)Z

optimize("wB97M-V")
frequencies("wB97M-V")
--------------------------------------------------------------------------

    Molecular point group: cs
  Charge       = 0
  Multiplicity = 1
  Basis Set: CC-PV(D+D)Z
    Blend: CC-PV(D+D)Z
  Basis Set: (CC-PV(D+D)Z AUX)
    Blend: CC-PVDZ-JKFIT
  @DF-RKS Final Energy:  -535.91525529408591
    Total Energy =                       -535.9152552940857959
    Molecular point group: cs
  Basis Set: CC-PV(D+D)Z
    Blend: CC-PV(D+D)Z
  Basis Set: (CC-PV(D+D)Z AUX)
    Blend: CC-PVDZ-JKFIT
  @DF-RKS Final Energy:  -535.91524880103714
    Total Energy =                       -535.9152488010372508
  Basis Set: CC-PV(D+D)Z
    Blend: CC-PV(D+D)Z
  Basis Set: (CC-PV(D+D)Z AUX)
    Blend: CC-PVDZ-JKFIT
  @DF-RKS Final Energy:  -535.91526117923650
    Total Energy =                       -535.9152611792366088
  Basis Set: CC-PV(D+D)Z
    Blend: CC-PV(D+D)Z
  Basis Set: (CC-PV(D+D)Z AUX)
    Blend: CC-PVDZ-JKFIT
  @DF-RKS Final Energy:  -535.91528428866195
    Total Energy =                       -535.9152842886619510
  @DF-RKS Final Energy:  -535.91521661324521
    Total Energy =                       -535.9152166132452066
  @DF-RKS Final Energy:  -535.91522946239820
    Total Energy =                       -535.9152294623982016
  @DF-RKS Final Energy:  -535.91527520844807
    Total Energy =                       -535.9152752084479516
  @DF-RKS Final Energy:  -535.91534374541254
    Total Energy =                       -535.9153437454124287
  @DF-RKS Final Energy:  -535.91534098849718
    Total Energy =                       -535.9153409884971779
  @DF-RKS Final Energy:  -535.91534589691662
    Total Energy =                       -535.9153458969166195
  @DF-RKS Final Energy:  -535.91534108952828
    Total Energy =                       -535.9153410895283969
  @DF-RKS Final Energy:  -535.91533713606304
    Total Energy =                       -535.9153371360630445
  @DF-RKS Final Energy:  -535.91534009000816
    Total Energy =                       -535.9153400900082715
  @DF-RKS Final Energy:  -535.91534172902107
    Total Energy =                       -535.9153417290209518
  @DF-RKS Final Energy:  -535.91534867261407
    Total Energy =                       -535.9153486726140727
  @DF-RKS Final Energy:  -535.91534781822850
    Total Energy =                       -535.9153478182284971
  @DF-RKS Final Energy:  -535.91534892740447
    Total Energy =                       -535.9153489274044659
  @DF-RKS Final Energy:  -535.91534329839362
    Total Energy =                       -535.9153432983935090
  @DF-RKS Final Energy:  -535.91534480088239
    Total Energy =                       -535.9153448008823943
  @DF-RKS Final Energy:  -535.91534670687042
    Total Energy =                       -535.9153467068704231
  **** Optimization is complete! (in 4 steps) ****
    Final optimized geometry and variables:
  @DF-RKS Final Energy:  -535.91534896827363
    Total Energy =                       -535.9153489682736335
  @DF-RKS Final Energy:  -535.91534861406944
    Total Energy =                       -535.9153486140694440
  @DF-RKS Final Energy:  -535.91534872494447
    Total Energy =                       -535.9153487249443515
  @DF-RKS Final Energy:  -535.91534418823403
    Total Energy =                       -535.9153441882339166
  @DF-RKS Final Energy:  -535.91534448406719
    Total Energy =                       -535.9153444840671909
  @DF-RKS Final Energy:  -535.91534625181305
    Total Energy =                       -535.9153462518129345
  @DF-RKS Final Energy:  -535.91534605661491
    Total Energy =                       -535.9153460566149079
  @DF-RKS Final Energy:  -535.91534896827352
    Total Energy =                       -535.9153489682735199
  @DF-RKS Final Energy:  -535.91534861406956
    Total Energy =                       -535.9153486140695577
  @DF-RKS Final Energy:  -535.91534872494412
    Total Energy =                       -535.9153487249441241
  @DF-RKS Final Energy:  -535.91534418823437
    Total Energy =                       -535.9153441882342577
  @DF-RKS Final Energy:  -535.91534448406765
    Total Energy =                       -535.9153444840677594
  @DF-RKS Final Energy:  -535.91534625181316
    Total Energy =                       -535.9153462518130482
  @DF-RKS Final Energy:  -535.91534605661491
    Total Energy =                       -535.9153460566149079
  @DF-RKS Final Energy:  -535.91534429794160
    Total Energy =                       -535.9153442979417150
  @DF-RKS Final Energy:  -535.91534389710205
    Total Energy =                       -535.9153438971021615
  Basis Set: CC-PV(D+D)Z
    Blend: CC-PV(D+D)Z
  Basis Set: (CC-PV(D+D)Z AUX)
    Blend: CC-PVDZ-JKFIT
  @DF-RKS Final Energy:  -535.91534600891384
    Total Energy =                       -535.9153460089138434
  Basis Set: CC-PV(D+D)Z
    Blend: CC-PV(D+D)Z
  Basis Set: (CC-PV(D+D)Z AUX)
    Blend: CC-PVDZ-JKFIT
  @DF-RKS Final Energy:  -535.91534608611505
    Total Energy =                       -535.9153460861149370
  Multiplicity = 1
  Basis Set: CC-PV(D+D)Z
    Blend: CC-PV(D+D)Z
  Basis Set: (CC-PV(D+D)Z AUX)
    Blend: CC-PVDZ-JKFIT
  @DF-RKS Final Energy:  -535.91534730384251
    Total Energy =                       -535.9153473038425091
    Molecular point group: cs

    Geometry (in Angstrom), charge = 0, multiplicity = 1:

       Center              X                  Y                   Z               Mass
    ------------   -----------------  -----------------  -----------------  -----------------
         O            1.118623363032     0.228179260906     0.000000000000    15.994914619570
         H            1.108829377424     1.200846092533     0.000000000000     1.007825032230
         CL          -0.543620671775    -0.138979410971     0.000000000000    34.968852682000

  Charge       = 0
  Multiplicity = 1
  Basis Set: CC-PV(D+D)Z
    Blend: CC-PV(D+D)Z
  Basis Set: (CC-PV(D+D)Z AUX)
    Blend: CC-PVDZ-JKFIT

    Orbital Energies [Eh]
    ---------------------

    Doubly Occupied:

       1Ap  -101.918783     2Ap   -19.411559     3Ap    -9.681146
       4Ap    -7.389604     5Ap    -7.375136     1App   -7.374776
       6Ap    -1.191362     7Ap    -0.915494     8Ap    -0.628963
       9Ap    -0.537951     2App   -0.510774    10Ap    -0.413404
       3App   -0.378636

  @DF-RKS Final Energy:  -535.91534716351498

   => Energetics <=

    Nuclear Repulsion Energy =             50.8575734797743095
    One-Electron Energy =                -840.4078146147115831
    Two-Electron Energy =                 281.8117528664638485
    DFT Exchange-Correlation Energy =     -28.2857047569618025
    Empirical Dispersion Energy =           0.0000000000000000
    VV10 Nonlocal Energy =                  0.1088458619202796
    Total Energy =                       -535.9153471635149799

  Dipole Moment: [D]
     X:    -0.1776      Y:     1.6447      Z:     0.0000     Total:     1.6543

  Vibration                       7                   8                   9
  Freq [cm^-1]                 767.0651           1256.1140           3769.1335
  Irrep                           Ap                  Ap                  Ap
  Reduced mass [u]             17.0674              1.0726              1.0684
  Force const [mDyne/A]         5.9167              0.9971              8.9426

  ==> Thermochemistry Components <==

  Entropy, S
    Electronic S            0.000 [cal/(mol K)]        0.000 [J/(mol K)]       0.00000000 [mEh/K] (multiplicity = 1)
    Translational S        37.767 [cal/(mol K)]      158.018 [J/(mol K)]       0.06018576 [mEh/K] (mol. weight = 51.9716 [u], P = 101325.00 [Pa])
    Rotational S           18.442 [cal/(mol K)]       77.163 [J/(mol K)]       0.02938974 [mEh/K] (symmetry no. = 1)
    Vibrational S           0.269 [cal/(mol K)]        1.124 [J/(mol K)]       0.00042806 [mEh/K]
  Total S                  56.478 [cal/(mol K)]      236.304 [J/(mol K)]       0.09000356 [mEh/K]
  Correction S              0.000 [cal/(mol K)]        0.000 [J/(mol K)]       0.00000000 [mEh/K]

  Constant volume heat capacity, Cv
    Electronic Cv           0.000 [cal/(mol K)]        0.000 [J/(mol K)]       0.00000000 [mEh/K]
    Translational Cv        2.981 [cal/(mol K)]       12.472 [J/(mol K)]       0.00475022 [mEh/K]
    Rotational Cv           2.981 [cal/(mol K)]       12.472 [J/(mol K)]       0.00475022 [mEh/K]
    Vibrational Cv          0.878 [cal/(mol K)]        3.672 [J/(mol K)]       0.00139843 [mEh/K]
  Total Cv                  6.839 [cal/(mol K)]       28.615 [J/(mol K)]       0.01089886 [mEh/K]
  Correction Cv             0.000 [cal/(mol K)]        0.000 [J/(mol K)]       0.00000000 [mEh/K]

  Constant pressure heat capacity, Cp
    Electronic Cp           0.000 [cal/(mol K)]        0.000 [J/(mol K)]       0.00000000 [mEh/K]
    Translational Cp        4.968 [cal/(mol K)]       20.786 [J/(mol K)]       0.00791703 [mEh/K]
    Rotational Cp           2.981 [cal/(mol K)]       12.472 [J/(mol K)]       0.00475022 [mEh/K]
    Vibrational Cp          0.878 [cal/(mol K)]        3.672 [J/(mol K)]       0.00139843 [mEh/K]
  Total Cp                  8.826 [cal/(mol K)]       36.929 [J/(mol K)]       0.01406567 [mEh/K]
  Correction Cp             0.000 [cal/(mol K)]        0.000 [J/(mol K)]       0.00000000 [mEh/K]

  ==> Thermochemistry Energy Analysis <==

  Raw electronic energy, E0
  Total E0, Electronic energy at well bottom at 0 [K]                 -535.91534897 [Eh]

  Zero-point energy, ZPE_vib = Sum_i nu_i / 2
    Electronic ZPE          0.000 [kcal/mol]        0.000 [kJ/mol]       0.00000000 [Eh]
    Translational ZPE       0.000 [kcal/mol]        0.000 [kJ/mol]       0.00000000 [Eh]
    Rotational ZPE          0.000 [kcal/mol]        0.000 [kJ/mol]       0.00000000 [Eh]
    Vibrational ZPE         8.281 [kcal/mol]       34.646 [kJ/mol]       0.01319586 [Eh]        2896.156 [cm^-1]
  Correction ZPE            8.281 [kcal/mol]       34.646 [kJ/mol]       0.01319586 [Eh]        2896.156 [cm^-1]
  Total ZPE, Electronic energy at 0 [K]                               -535.90215311 [Eh]

  Thermal Energy, E (includes ZPE)
    Electronic E            0.000 [kcal/mol]        0.000 [kJ/mol]       0.00000000 [Eh]
    Translational E         0.889 [kcal/mol]        3.718 [kJ/mol]       0.00141628 [Eh]
    Rotational E            0.889 [kcal/mol]        3.718 [kJ/mol]       0.00141628 [Eh]
    Vibrational E           8.344 [kcal/mol]       34.913 [kJ/mol]       0.01329768 [Eh]
  Correction E             10.122 [kcal/mol]       42.350 [kJ/mol]       0.01613024 [Eh]
  Total E, Electronic energy at  298.15 [K]                           -535.89921873 [Eh]

  Enthalpy, H_trans = E_trans + k_B * T
    Electronic H            0.000 [kcal/mol]        0.000 [kJ/mol]       0.00000000 [Eh]
    Translational H         1.481 [kcal/mol]        6.197 [kJ/mol]       0.00236046 [Eh]
    Rotational H            0.889 [kcal/mol]        3.718 [kJ/mol]       0.00141628 [Eh]
    Vibrational H           8.344 [kcal/mol]       34.913 [kJ/mol]       0.01329768 [Eh]
  Correction H             10.714 [kcal/mol]       44.829 [kJ/mol]       0.01707442 [Eh]
  Total H, Enthalpy at  298.15 [K]                                    -535.89827455 [Eh]

  Gibbs free energy, G = H - T * S
    Electronic G            0.000 [kcal/mol]        0.000 [kJ/mol]       0.00000000 [Eh]
    Translational G        -9.779 [kcal/mol]      -40.916 [kJ/mol]      -0.01558392 [Eh]
    Rotational G           -4.610 [kcal/mol]      -19.288 [kJ/mol]      -0.00734628 [Eh]
    Vibrational G           8.264 [kcal/mol]       34.578 [kJ/mol]       0.01317006 [Eh]
  Correction G             -6.125 [kcal/mol]      -25.625 [kJ/mol]      -0.00976014 [Eh]
  Total G, Free enthalpy at  298.15 [K]                               -535.92510911 [Eh]

*** Psi4 exiting successfully. Buy a developer a beer!
