                               Psi4 1.3.2 release

  ==> Input File <==

--------------------------------------------------------------------------
memory 144 GB

molecule {
0 1
N 0.0000000000 0.0000000000 0.0000000000
N 0.0000000000 0.0000000000 1.1003000000
}

set dynamic_level 1
set basis cc-pV(D+d)Z

optimize("wB97M-V")
frequencies("wB97M-V")
--------------------------------------------------------------------------

    Molecular point group: d2h
  Charge       = 0
  Multiplicity = 1
  Basis Set: CC-PV(D+D)Z
    Blend: CC-PV(D+D)Z
  Basis Set: (CC-PV(D+D)Z AUX)
    Blend: CC-PVDZ-JKFIT
  @DF-RKS Final Energy:  -109.51342640039056
    Total Energy =                       -109.5134264003905713
    Molecular point group: d2h
  Basis Set: CC-PV(D+D)Z
    Blend: CC-PV(D+D)Z
  Basis Set: (CC-PV(D+D)Z AUX)
    Blend: CC-PVDZ-JKFIT
  @DF-RKS Final Energy:  -109.51343306509864
    Total Energy =                       -109.5134330650986385
  Basis Set: CC-PV(D+D)Z
    Blend: CC-PV(D+D)Z
  Basis Set: (CC-PV(D+D)Z AUX)
    Blend: CC-PVDZ-JKFIT
  @DF-RKS Final Energy:  -109.51341376866922
    Total Energy =                       -109.5134137686692242
  Basis Set: CC-PV(D+D)Z
    Blend: CC-PV(D+D)Z
  Basis Set: (CC-PV(D+D)Z AUX)
    Blend: CC-PVDZ-JKFIT
  @DF-RKS Final Energy:  -109.51343419341885
    Total Energy =                       -109.5134341934188313
  @DF-RKS Final Energy:  -109.51343179966497
    Total Energy =                       -109.5134317996649713
  @DF-RKS Final Energy:  -109.51343068370049
    Total Energy =                       -109.5134306837004914
  **** Optimization is complete! (in 2 steps) ****
    Final optimized geometry and variables:
  @DF-RKS Final Energy:  -109.51343419341892
    Total Energy =                       -109.5134341934189166
  @DF-RKS Final Energy:  -109.51343179966496
    Total Energy =                       -109.5134317996649571
  Basis Set: CC-PV(D+D)Z
    Blend: CC-PV(D+D)Z
  Basis Set: (CC-PV(D+D)Z AUX)
    Blend: CC-PVDZ-JKFIT
  @DF-RKS Final Energy:  -109.51343068370048
    Total Energy =                       -109.5134306837004914
  Basis Set: CC-PV(D+D)Z
    Blend: CC-PV(D+D)Z
  Basis Set: (CC-PV(D+D)Z AUX)
    Blend: CC-PVDZ-JKFIT
  @DF-RKS Final Energy:  -109.51343419341890
    Total Energy =                       -109.5134341934189166
  Multiplicity = 1
  Basis Set: CC-PV(D+D)Z
    Blend: CC-PV(D+D)Z
  Basis Set: (CC-PV(D+D)Z AUX)
    Blend: CC-PVDZ-JKFIT
  @DF-RKS Final Energy:  -109.51343179966499
    Total Energy =                       -109.5134317996649997
    Molecular point group: d2h

    Geometry (in Angstrom), charge = 0, multiplicity = 1:

       Center              X                  Y                   Z               Mass
    ------------   -----------------  -----------------  -----------------  -----------------
         N            0.000000000000     0.000000000000    -0.550415801224    14.003074004430
         N            0.000000000000     0.000000000000     0.550415801224    14.003074004430

  Charge       = 0
  Multiplicity = 1
  Basis Set: CC-PV(D+D)Z
    Blend: CC-PV(D+D)Z
  Basis Set: (CC-PV(D+D)Z AUX)
    Blend: CC-PVDZ-JKFIT

    Orbital Energies [Eh]
    ---------------------

    Doubly Occupied:

       1Ag   -14.616504     1B1u  -14.614953     2Ag    -1.244998
       2B1u   -0.658918     1B3u   -0.560198     1B2u   -0.560198
       3Ag    -0.527285

  @DF-RKS Final Energy:  -109.51343068370048

   => Energetics <=

    Nuclear Repulsion Energy =             23.5546320301450827
    One-Electron Energy =                -194.3632345533318642
    Two-Electron Energy =                  71.1232568823268139
    DFT Exchange-Correlation Energy =      -9.8870969961349218
    Empirical Dispersion Energy =           0.0000000000000000
    VV10 Nonlocal Energy =                  0.0590119532944091
    Total Energy =                       -109.5134306837004630

  Dipole Moment: [D]
     X:     0.0000      Y:     0.0000      Z:     0.0000     Total:     0.0000

  Vibration                       6
  Freq [cm^-1]                2497.9747
  Irrep                           Ag
  Reduced mass [u]             14.0031
  Force const [mDyne/A]        51.4813

  ==> Thermochemistry Components <==

  Entropy, S
    Electronic S            0.000 [cal/(mol K)]        0.000 [J/(mol K)]       0.00000000 [mEh/K] (multiplicity = 1)
    Translational S        35.924 [cal/(mol K)]      150.307 [J/(mol K)]       0.05724883 [mEh/K] (mol. weight = 28.0061 [u], P = 101325.00 [Pa])
    Rotational S            9.848 [cal/(mol K)]       41.206 [J/(mol K)]       0.01569449 [mEh/K] (symmetry no. = 2)
    Vibrational S           0.000 [cal/(mol K)]        0.001 [J/(mol K)]       0.00000024 [mEh/K]
  Total S                  45.773 [cal/(mol K)]      191.513 [J/(mol K)]       0.07294356 [mEh/K]
  Correction S              0.000 [cal/(mol K)]        0.000 [J/(mol K)]       0.00000000 [mEh/K]

  Constant volume heat capacity, Cv
    Electronic Cv           0.000 [cal/(mol K)]        0.000 [J/(mol K)]       0.00000000 [mEh/K]
    Translational Cv        2.981 [cal/(mol K)]       12.472 [J/(mol K)]       0.00475022 [mEh/K]
    Rotational Cv           1.987 [cal/(mol K)]        8.314 [J/(mol K)]       0.00316681 [mEh/K]
    Vibrational Cv          0.002 [cal/(mol K)]        0.007 [J/(mol K)]       0.00000268 [mEh/K]
  Total Cv                  4.970 [cal/(mol K)]       20.793 [J/(mol K)]       0.00791970 [mEh/K]
  Correction Cv             0.000 [cal/(mol K)]        0.000 [J/(mol K)]       0.00000000 [mEh/K]

  Constant pressure heat capacity, Cp
    Electronic Cp           0.000 [cal/(mol K)]        0.000 [J/(mol K)]       0.00000000 [mEh/K]
    Translational Cp        4.968 [cal/(mol K)]       20.786 [J/(mol K)]       0.00791703 [mEh/K]
    Rotational Cp           1.987 [cal/(mol K)]        8.314 [J/(mol K)]       0.00316681 [mEh/K]
    Vibrational Cp          0.002 [cal/(mol K)]        0.007 [J/(mol K)]       0.00000268 [mEh/K]
  Total Cp                  6.957 [cal/(mol K)]       29.108 [J/(mol K)]       0.01108651 [mEh/K]
  Correction Cp             0.000 [cal/(mol K)]        0.000 [J/(mol K)]       0.00000000 [mEh/K]

  ==> Thermochemistry Energy Analysis <==

  Raw electronic energy, E0
  Total E0, Electronic energy at well bottom at 0 [K]                 -109.51343419 [Eh]

  Zero-point energy, ZPE_vib = Sum_i nu_i / 2
    Electronic ZPE          0.000 [kcal/mol]        0.000 [kJ/mol]       0.00000000 [Eh]
    Translational ZPE       0.000 [kcal/mol]        0.000 [kJ/mol]       0.00000000 [Eh]
    Rotational ZPE          0.000 [kcal/mol]        0.000 [kJ/mol]       0.00000000 [Eh]
    Vibrational ZPE         3.571 [kcal/mol]       14.941 [kJ/mol]       0.00569081 [Eh]        1248.987 [cm^-1]
  Correction ZPE            3.571 [kcal/mol]       14.941 [kJ/mol]       0.00569081 [Eh]        1248.987 [cm^-1]
  Total ZPE, Electronic energy at 0 [K]                               -109.50774339 [Eh]

  Thermal Energy, E (includes ZPE)
    Electronic E            0.000 [kcal/mol]        0.000 [kJ/mol]       0.00000000 [Eh]
    Translational E         0.889 [kcal/mol]        3.718 [kJ/mol]       0.00141628 [Eh]
    Rotational E            0.592 [kcal/mol]        2.479 [kJ/mol]       0.00094418 [Eh]
    Vibrational E           3.571 [kcal/mol]       14.941 [kJ/mol]       0.00569087 [Eh]
  Correction E              5.052 [kcal/mol]       21.139 [kJ/mol]       0.00805133 [Eh]
  Total E, Electronic energy at  298.15 [K]                           -109.50538286 [Eh]

  Enthalpy, H_trans = E_trans + k_B * T
    Electronic H            0.000 [kcal/mol]        0.000 [kJ/mol]       0.00000000 [Eh]
    Translational H         1.481 [kcal/mol]        6.197 [kJ/mol]       0.00236046 [Eh]
    Rotational H            0.592 [kcal/mol]        2.479 [kJ/mol]       0.00094418 [Eh]
    Vibrational H           3.571 [kcal/mol]       14.941 [kJ/mol]       0.00569087 [Eh]
  Correction H              5.645 [kcal/mol]       23.618 [kJ/mol]       0.00899552 [Eh]
  Total H, Enthalpy at  298.15 [K]                                    -109.50443868 [Eh]

  Gibbs free energy, G = H - T * S
    Electronic G            0.000 [kcal/mol]        0.000 [kJ/mol]       0.00000000 [Eh]
    Translational G        -9.230 [kcal/mol]      -38.617 [kJ/mol]      -0.01470828 [Eh]
    Rotational G           -2.344 [kcal/mol]       -9.807 [kJ/mol]      -0.00373513 [Eh]
    Vibrational G           3.571 [kcal/mol]       14.941 [kJ/mol]       0.00569080 [Eh]
  Correction G             -8.002 [kcal/mol]      -33.482 [kJ/mol]      -0.01275261 [Eh]
  Total G, Free enthalpy at  298.15 [K]                               -109.52618680 [Eh]

*** Psi4 exiting successfully. Buy a developer a beer!
