                               Psi4 1.3.2 release

  ==> Input File <==

--------------------------------------------------------------------------
memory 144 GB

molecule {
0 1
N 0.0000000000 0.0000000000 0.0000000000
H 0.0000000000 0.0000000000 1.0124000000
H 0.9722998620 0.0000000000 -0.2821112163
H -0.3756003142 0.8968229622 -0.2821112163
}

set dynamic_level 1
set basis cc-pV(D+d)Z

optimize("wB97M-V")
frequencies("wB97M-V")
--------------------------------------------------------------------------

    Molecular point group: cs
  Charge       = 0
  Multiplicity = 1
  Basis Set: CC-PV(D+D)Z
    Blend: CC-PV(D+D)Z
  Basis Set: (CC-PV(D+D)Z AUX)
    Blend: CC-PVDZ-JKFIT
  @DF-RKS Final Energy:   -56.51831411337370
    Total Energy =                        -56.5183141133736981
    Molecular point group: cs
  Basis Set: CC-PV(D+D)Z
    Blend: CC-PV(D+D)Z
  Basis Set: (CC-PV(D+D)Z AUX)
    Blend: CC-PVDZ-JKFIT
  @DF-RKS Final Energy:   -56.51833969995097
    Total Energy =                        -56.5183396999509782
  Basis Set: CC-PV(D+D)Z
    Blend: CC-PV(D+D)Z
  Basis Set: (CC-PV(D+D)Z AUX)
    Blend: CC-PVDZ-JKFIT
  @DF-RKS Final Energy:   -56.51828289578161
    Total Energy =                        -56.5182828957816099
  Basis Set: CC-PV(D+D)Z
    Blend: CC-PV(D+D)Z
  Basis Set: (CC-PV(D+D)Z AUX)
    Blend: CC-PVDZ-JKFIT
  @DF-RKS Final Energy:   -56.51834159375989
    Total Energy =                        -56.5183415937598852
  @DF-RKS Final Energy:   -56.51828137451744
    Total Energy =                        -56.5182813745174428
  @DF-RKS Final Energy:   -56.51827439483654
    Total Energy =                        -56.5182743948365385
  @DF-RKS Final Energy:   -56.51834501485896
    Total Energy =                        -56.5183450148589586
  @DF-RKS Final Energy:   -56.51827439275210
    Total Energy =                        -56.5182743927520974
  @DF-RKS Final Energy:   -56.51834501701396
    Total Energy =                        -56.5183450170139565
  @DF-RKS Final Energy:   -56.51864162736186
    Total Energy =                        -56.5186416273618590
  @DF-RKS Final Energy:   -56.51864773549599
    Total Energy =                        -56.5186477354959962
  @DF-RKS Final Energy:   -56.51863001756227
    Total Energy =                        -56.5186300175622804
  @DF-RKS Final Energy:   -56.51864830309042
    Total Energy =                        -56.5186483030904085
  @DF-RKS Final Energy:   -56.51862972696589
    Total Energy =                        -56.5186297269658908
  @DF-RKS Final Energy:   -56.51863373683630
    Total Energy =                        -56.5186337368362999
  @DF-RKS Final Energy:   -56.51864112882119
    Total Energy =                        -56.5186411288211872
  @DF-RKS Final Energy:   -56.51863373384745
    Total Energy =                        -56.5186337338474445
  @DF-RKS Final Energy:   -56.51864113208826
    Total Energy =                        -56.5186411320882698
  @DF-RKS Final Energy:   -56.51869025196916
    Total Energy =                        -56.5186902519691614
  @DF-RKS Final Energy:   -56.51868746092556
    Total Energy =                        -56.5186874609255625
  **** Optimization is complete! (in 3 steps) ****
    Final optimized geometry and variables:
  @DF-RKS Final Energy:   -56.51868559770102
    Total Energy =                        -56.5186855977010225
  @DF-RKS Final Energy:   -56.51868666019816
    Total Energy =                        -56.5186866601981563
  @DF-RKS Final Energy:   -56.51868559623944
    Total Energy =                        -56.5186855962394361
  @DF-RKS Final Energy:   -56.51868666192497
    Total Energy =                        -56.5186866619249741
  @DF-RKS Final Energy:   -56.51868777168664
    Total Energy =                        -56.5186877716866434
  @DF-RKS Final Energy:   -56.51868757178410
    Total Energy =                        -56.5186875717840991
  @DF-RKS Final Energy:   -56.51868329934930
    Total Energy =                        -56.5186832993493056
  @DF-RKS Final Energy:   -56.51868211467772
    Total Energy =                        -56.5186821146777163
  @DF-RKS Final Energy:   -56.51868810959407
    Total Energy =                        -56.5186881095940663
  @DF-RKS Final Energy:   -56.51868697039514
    Total Energy =                        -56.5186869703951444
  @DF-RKS Final Energy:   -56.51868802155369
    Total Energy =                        -56.5186880215536860
  @DF-RKS Final Energy:   -56.51868689210630
    Total Energy =                        -56.5186868921062953
  @DF-RKS Final Energy:   -56.51868354295755
    Total Energy =                        -56.5186835429575538
  @DF-RKS Final Energy:   -56.51868238769725
    Total Energy =                        -56.5186823876972539
  @DF-RKS Final Energy:   -56.51868136706425
    Total Energy =                        -56.5186813670642465
  @DF-RKS Final Energy:   -56.51867920903674
    Total Energy =                        -56.5186792090367405
  Basis Set: CC-PV(D+D)Z
    Blend: CC-PV(D+D)Z
  Basis Set: (CC-PV(D+D)Z AUX)
    Blend: CC-PVDZ-JKFIT
  @DF-RKS Final Energy:   -56.51868614465482
    Total Energy =                        -56.5186861446548221
  Basis Set: CC-PV(D+D)Z
    Blend: CC-PV(D+D)Z
  Basis Set: (CC-PV(D+D)Z AUX)
    Blend: CC-PVDZ-JKFIT
  @DF-RKS Final Energy:   -56.51868762421663
    Total Energy =                        -56.5186876242166321
  Multiplicity = 1
  Basis Set: CC-PV(D+D)Z
    Blend: CC-PV(D+D)Z
  Basis Set: (CC-PV(D+D)Z AUX)
    Blend: CC-PVDZ-JKFIT
  @DF-RKS Final Energy:   -56.51868817809522
    Total Energy =                        -56.5186881780952177
    Molecular point group: c1

    Geometry (in Angstrom), charge = 0, multiplicity = 1:

       Center              X                  Y                   Z               Mass
    ------------   -----------------  -----------------  -----------------  -----------------
         N           -0.048055216969    -0.057750281828    -0.000257445577    14.003074004430
         H            0.580096963061    -0.028822012794     0.806984067231     1.007825032230
         H            0.580922690094    -0.031950160273    -0.806121037445     1.007825032230
         H           -0.493323636494     0.863174816735     0.002714009230     1.007825032230

  Charge       = 0
  Multiplicity = 1
  Basis Set: CC-PV(D+D)Z
    Blend: CC-PV(D+D)Z
  Basis Set: (CC-PV(D+D)Z AUX)
    Blend: CC-PVDZ-JKFIT

    Orbital Energies [Eh]
    ---------------------

    Doubly Occupied:

       1A    -14.487581     2A     -0.961177     3A     -0.544421
       4A     -0.543255     5A     -0.359674

  @DF-RKS Final Energy:   -56.51868817809213

   => Energetics <=

    Nuclear Repulsion Energy =             11.8478297429508057
    One-Electron Energy =                 -99.5030214993792583
    Two-Electron Energy =                  36.6521862651794876
    DFT Exchange-Correlation Energy =      -5.5576038494378279
    Empirical Dispersion Energy =           0.0000000000000000
    VV10 Nonlocal Energy =                  0.0419211625946623
    Total Energy =                        -56.5186881780921269

  Dipole Moment: [D]
     X:     1.0908      Y:     1.3108      Z:     0.0017     Total:     1.7053

  Vibration                       7                   8                   9
  Freq [cm^-1]                1127.2063           1396.3564           1667.7958
  Irrep                           Ap                 App                  Ap
  Reduced mass [u]              1.1752              1.0530              1.0615
  Force const [mDyne/A]         0.8798              1.2097              1.7397

  Vibration                       10                  11                  12
  Freq [cm^-1]                3462.1229           3505.4143           3577.5116
  Irrep                           Ap                 App                  Ap
  Reduced mass [u]              1.0309              1.0956              1.0865
  Force const [mDyne/A]         7.2802              7.9321              8.1933

  ==> Thermochemistry Components <==

  Entropy, S
    Electronic S            0.000 [cal/(mol K)]        0.000 [J/(mol K)]       0.00000000 [mEh/K] (multiplicity = 1)
    Translational S        34.441 [cal/(mol K)]      144.100 [J/(mol K)]       0.05488488 [mEh/K] (mol. weight = 17.0265 [u], P = 101325.00 [Pa])
    Rotational S           13.674 [cal/(mol K)]       57.213 [J/(mol K)]       0.02179130 [mEh/K] (symmetry no. = 1)
    Vibrational S           0.080 [cal/(mol K)]        0.334 [J/(mol K)]       0.00012712 [mEh/K]
  Total S                  48.195 [cal/(mol K)]      201.647 [J/(mol K)]       0.07680330 [mEh/K]
  Correction S              0.000 [cal/(mol K)]        0.000 [J/(mol K)]       0.00000000 [mEh/K]

  Constant volume heat capacity, Cv
    Electronic Cv           0.000 [cal/(mol K)]        0.000 [J/(mol K)]       0.00000000 [mEh/K]
    Translational Cv        2.981 [cal/(mol K)]       12.472 [J/(mol K)]       0.00475022 [mEh/K]
    Rotational Cv           2.981 [cal/(mol K)]       12.472 [J/(mol K)]       0.00475022 [mEh/K]
    Vibrational Cv          0.406 [cal/(mol K)]        1.698 [J/(mol K)]       0.00064683 [mEh/K]
  Total Cv                  6.368 [cal/(mol K)]       26.642 [J/(mol K)]       0.01014726 [mEh/K]
  Correction Cv             0.000 [cal/(mol K)]        0.000 [J/(mol K)]       0.00000000 [mEh/K]

  Constant pressure heat capacity, Cp
    Electronic Cp           0.000 [cal/(mol K)]        0.000 [J/(mol K)]       0.00000000 [mEh/K]
    Translational Cp        4.968 [cal/(mol K)]       20.786 [J/(mol K)]       0.00791703 [mEh/K]
    Rotational Cp           2.981 [cal/(mol K)]       12.472 [J/(mol K)]       0.00475022 [mEh/K]
    Vibrational Cp          0.406 [cal/(mol K)]        1.698 [J/(mol K)]       0.00064683 [mEh/K]
  Total Cp                  8.355 [cal/(mol K)]       34.956 [J/(mol K)]       0.01331407 [mEh/K]
  Correction Cp             0.000 [cal/(mol K)]        0.000 [J/(mol K)]       0.00000000 [mEh/K]

  ==> Thermochemistry Energy Analysis <==

  Raw electronic energy, E0
  Total E0, Electronic energy at well bottom at 0 [K]                  -56.51869025 [Eh]

  Zero-point energy, ZPE_vib = Sum_i nu_i / 2
    Electronic ZPE          0.000 [kcal/mol]        0.000 [kJ/mol]       0.00000000 [Eh]
    Translational ZPE       0.000 [kcal/mol]        0.000 [kJ/mol]       0.00000000 [Eh]
    Rotational ZPE          0.000 [kcal/mol]        0.000 [kJ/mol]       0.00000000 [Eh]
    Vibrational ZPE        21.067 [kcal/mol]       88.143 [kJ/mol]       0.03357201 [Eh]        7368.204 [cm^-1]
  Correction ZPE           21.067 [kcal/mol]       88.143 [kJ/mol]       0.03357201 [Eh]        7368.204 [cm^-1]
  Total ZPE, Electronic energy at 0 [K]                                -56.48511825 [Eh]

  Thermal Energy, E (includes ZPE)
    Electronic E            0.000 [kcal/mol]        0.000 [kJ/mol]       0.00000000 [Eh]
    Translational E         0.889 [kcal/mol]        3.718 [kJ/mol]       0.00141628 [Eh]
    Rotational E            0.889 [kcal/mol]        3.718 [kJ/mol]       0.00141628 [Eh]
    Vibrational E          21.087 [kcal/mol]       88.228 [kJ/mol]       0.03360438 [Eh]
  Correction E             22.865 [kcal/mol]       95.665 [kJ/mol]       0.03643693 [Eh]
  Total E, Electronic energy at  298.15 [K]                            -56.48225332 [Eh]

  Enthalpy, H_trans = E_trans + k_B * T
    Electronic H            0.000 [kcal/mol]        0.000 [kJ/mol]       0.00000000 [Eh]
    Translational H         1.481 [kcal/mol]        6.197 [kJ/mol]       0.00236046 [Eh]
    Rotational H            0.889 [kcal/mol]        3.718 [kJ/mol]       0.00141628 [Eh]
    Vibrational H          21.087 [kcal/mol]       88.228 [kJ/mol]       0.03360438 [Eh]
  Correction H             23.457 [kcal/mol]       98.144 [kJ/mol]       0.03738112 [Eh]
  Total H, Enthalpy at  298.15 [K]                                     -56.48130914 [Eh]

  Gibbs free energy, G = H - T * S
    Electronic G            0.000 [kcal/mol]        0.000 [kJ/mol]       0.00000000 [Eh]
    Translational G        -8.787 [kcal/mol]      -36.766 [kJ/mol]      -0.01400347 [Eh]
    Rotational G           -3.188 [kcal/mol]      -13.340 [kJ/mol]      -0.00508080 [Eh]
    Vibrational G          21.063 [kcal/mol]       88.129 [kJ/mol]       0.03356648 [Eh]
  Correction G              9.088 [kcal/mol]       38.023 [kJ/mol]       0.01448221 [Eh]
  Total G, Free enthalpy at  298.15 [K]                                -56.50420804 [Eh]

*** Psi4 exiting successfully. Buy a developer a beer!
