                               Psi4 1.3.2 release

  ==> Input File <==

--------------------------------------------------------------------------
memory 144 GB

molecule {
0 1
N 0.0000000000 0.0000000000 0.0000000000
N 0.0000000000 0.0000000000 1.1291000000
O 0.0000000000 -0.0000000000 2.3161000000
}

set dynamic_level 1
set basis cc-pV(D+d)Z

optimize("wB97M-V")
frequencies("wB97M-V")
--------------------------------------------------------------------------

    Molecular point group: c2v
  Charge       = 0
  Multiplicity = 1
  Basis Set: CC-PV(D+D)Z
    Blend: CC-PV(D+D)Z
  Basis Set: (CC-PV(D+D)Z AUX)
    Blend: CC-PVDZ-JKFIT
  @DF-RKS Final Energy:  -184.63152170447898
    Total Energy =                       -184.6315217044789847
    Molecular point group: c2v
  Basis Set: CC-PV(D+D)Z
    Blend: CC-PV(D+D)Z
  Basis Set: (CC-PV(D+D)Z AUX)
    Blend: CC-PVDZ-JKFIT
  @DF-RKS Final Energy:  -184.63151081531242
    Total Energy =                       -184.6315108153123958
  Basis Set: CC-PV(D+D)Z
    Blend: CC-PV(D+D)Z
  Basis Set: (CC-PV(D+D)Z AUX)
    Blend: CC-PVDZ-JKFIT
  @DF-RKS Final Energy:  -184.63152911325551
    Total Energy =                       -184.6315291132555387
  Basis Set: CC-PV(D+D)Z
    Blend: CC-PV(D+D)Z
  Basis Set: (CC-PV(D+D)Z AUX)
    Blend: CC-PVDZ-JKFIT
  @DF-RKS Final Energy:  -184.63152084021095
    Total Energy =                       -184.6315208402109533
  @DF-RKS Final Energy:  -184.63151889687319
    Total Energy =                       -184.6315188968731889
  @DF-RKS Final Energy:  -184.63153625739375
    Total Energy =                       -184.6315362573937477
  @DF-RKS Final Energy:  -184.63153382272043
    Total Energy =                       -184.6315338227204279
  @DF-RKS Final Energy:  -184.63153516071878
    Total Energy =                       -184.6315351607187836
  @DF-RKS Final Energy:  -184.63153423894943
    Total Energy =                       -184.6315342389494276
  @DF-RKS Final Energy:  -184.63153455840177
    Total Energy =                       -184.6315345584017678
  @DF-RKS Final Energy:  -184.63153636918872
    Total Energy =                       -184.6315363691887512
  @DF-RKS Final Energy:  -184.63153463709813
    Total Energy =                       -184.6315346370980990
  @DF-RKS Final Energy:  -184.63153456565493
    Total Energy =                       -184.6315345656549312
  @DF-RKS Final Energy:  -184.63153443118625
    Total Energy =                       -184.6315344311862532
  @DF-RKS Final Energy:  -184.63153458380756
    Total Energy =                       -184.6315345838075928
  **** Optimization is complete! (in 3 steps) ****
    Final optimized geometry and variables:
  @DF-RKS Final Energy:  -184.63153636921842
    Total Energy =                       -184.6315363692184235
  @DF-RKS Final Energy:  -184.63153463721099
    Total Energy =                       -184.6315346372109900
  @DF-RKS Final Energy:  -184.63153456551004
    Total Energy =                       -184.6315345655100373
  @DF-RKS Final Energy:  -184.63153443131125
    Total Energy =                       -184.6315344313112519
  @DF-RKS Final Energy:  -184.63153458383363
    Total Energy =                       -184.6315345838336270
  @DF-RKS Final Energy:  -184.63153636921834
    Total Energy =                       -184.6315363692183098
  @DF-RKS Final Energy:  -184.63153463721102
    Total Energy =                       -184.6315346372110184
  @DF-RKS Final Energy:  -184.63153456551007
    Total Energy =                       -184.6315345655100657
  @DF-RKS Final Energy:  -184.63153443131128
    Total Energy =                       -184.6315344313112803
  @DF-RKS Final Energy:  -184.63153458383363
    Total Energy =                       -184.6315345838336270
  Basis Set: CC-PV(D+D)Z
    Blend: CC-PV(D+D)Z
  Basis Set: (CC-PV(D+D)Z AUX)
    Blend: CC-PVDZ-JKFIT
  @DF-RKS Final Energy:  -184.63153463976724
    Total Energy =                       -184.6315346397672670
  Basis Set: CC-PV(D+D)Z
    Blend: CC-PV(D+D)Z
  Basis Set: (CC-PV(D+D)Z AUX)
    Blend: CC-PVDZ-JKFIT
  @DF-RKS Final Energy:  -184.63153455349919
    Total Energy =                       -184.6315345534991934
  Multiplicity = 1
  Basis Set: CC-PV(D+D)Z
    Blend: CC-PV(D+D)Z
  Basis Set: (CC-PV(D+D)Z AUX)
    Blend: CC-PVDZ-JKFIT
  @DF-RKS Final Energy:  -184.63153619028716
    Total Energy =                       -184.6315361902871643
    Molecular point group: cs

    Geometry (in Angstrom), charge = 0, multiplicity = 1:

       Center              X                  Y                   Z               Mass
    ------------   -----------------  -----------------  -----------------  -----------------
         N            0.000000000000    -0.000298915314    -1.199307956136    14.003074004430
         N            0.000000000000     0.000583028696    -0.072357550926    14.003074004430
         O            0.000000000000    -0.000248732850     1.113305486637    15.994914619570

  Charge       = 0
  Multiplicity = 1
  Basis Set: CC-PV(D+D)Z
    Blend: CC-PV(D+D)Z
  Basis Set: (CC-PV(D+D)Z AUX)
    Blend: CC-PVDZ-JKFIT

    Orbital Energies [Eh]
    ---------------------

    Doubly Occupied:

       1Ap   -19.437354     2Ap   -14.751396     3Ap   -14.617249
       4Ap    -1.373078     5Ap    -1.212037     6Ap    -0.710101
       1App   -0.673817     7Ap    -0.673817     8Ap    -0.582172
       2App   -0.431404     9Ap    -0.431404

  @DF-RKS Final Energy:  -184.63153619041276

   => Energetics <=

    Nuclear Repulsion Energy =             60.8162913831530219
    One-Electron Energy =                -370.9590531167582412
    Two-Electron Energy =                 141.5919222143819809
    DFT Exchange-Correlation Energy =     -16.1719979005896732
    Empirical Dispersion Energy =           0.0000000000000000
    VV10 Nonlocal Energy =                  0.0913012294001371
    Total Energy =                       -184.6315361904127599

  Dipole Moment: [D]
     X:     0.0000      Y:     0.0013      Z:    -0.1545     Total:     0.1545

  Vibration                       6                   7                   8
  Freq [cm^-1]                 614.8084            615.0243           1367.8789
  Irrep                           B2                  B1                  A1
  Reduced mass [u]             14.2540             14.2540             15.1172
  Force const [mDyne/A]         3.1744              3.1767             16.6655

  Vibration                       9
  Freq [cm^-1]                2408.6436
  Irrep                           A1
  Reduced mass [u]             14.0814
  Force const [mDyne/A]        48.1327

  ==> Thermochemistry Components <==

  Entropy, S
    Electronic S            0.000 [cal/(mol K)]        0.000 [J/(mol K)]       0.00000000 [mEh/K] (multiplicity = 1)
    Translational S        37.271 [cal/(mol K)]      155.941 [J/(mol K)]       0.05939493 [mEh/K] (mol. weight = 44.0011 [u], P = 101325.00 [Pa])
    Rotational S           14.306 [cal/(mol K)]       59.855 [J/(mol K)]       0.02279743 [mEh/K] (symmetry no. = 1)
    Vibrational S           0.870 [cal/(mol K)]        3.641 [J/(mol K)]       0.00138673 [mEh/K]
  Total S                  52.447 [cal/(mol K)]      219.437 [J/(mol K)]       0.08357909 [mEh/K]
  Correction S              0.000 [cal/(mol K)]        0.000 [J/(mol K)]       0.00000000 [mEh/K]

  Constant volume heat capacity, Cv
    Electronic Cv           0.000 [cal/(mol K)]        0.000 [J/(mol K)]       0.00000000 [mEh/K]
    Translational Cv        2.981 [cal/(mol K)]       12.472 [J/(mol K)]       0.00475022 [mEh/K]
    Rotational Cv           1.987 [cal/(mol K)]        8.314 [J/(mol K)]       0.00316681 [mEh/K]
    Vibrational Cv          2.121 [cal/(mol K)]        8.874 [J/(mol K)]       0.00338009 [mEh/K]
  Total Cv                  7.089 [cal/(mol K)]       29.661 [J/(mol K)]       0.01129712 [mEh/K]
  Correction Cv             0.000 [cal/(mol K)]        0.000 [J/(mol K)]       0.00000000 [mEh/K]

  Constant pressure heat capacity, Cp
    Electronic Cp           0.000 [cal/(mol K)]        0.000 [J/(mol K)]       0.00000000 [mEh/K]
    Translational Cp        4.968 [cal/(mol K)]       20.786 [J/(mol K)]       0.00791703 [mEh/K]
    Rotational Cp           1.987 [cal/(mol K)]        8.314 [J/(mol K)]       0.00316681 [mEh/K]
    Vibrational Cp          2.121 [cal/(mol K)]        8.874 [J/(mol K)]       0.00338009 [mEh/K]
  Total Cp                  9.076 [cal/(mol K)]       37.975 [J/(mol K)]       0.01446393 [mEh/K]
  Correction Cp             0.000 [cal/(mol K)]        0.000 [J/(mol K)]       0.00000000 [mEh/K]

  ==> Thermochemistry Energy Analysis <==

  Raw electronic energy, E0
  Total E0, Electronic energy at well bottom at 0 [K]                 -184.63153637 [Eh]

  Zero-point energy, ZPE_vib = Sum_i nu_i / 2
    Electronic ZPE          0.000 [kcal/mol]        0.000 [kJ/mol]       0.00000000 [Eh]
    Translational ZPE       0.000 [kcal/mol]        0.000 [kJ/mol]       0.00000000 [Eh]
    Rotational ZPE          0.000 [kcal/mol]        0.000 [kJ/mol]       0.00000000 [Eh]
    Vibrational ZPE         7.157 [kcal/mol]       29.945 [kJ/mol]       0.01140532 [Eh]        2503.178 [cm^-1]
  Correction ZPE            7.157 [kcal/mol]       29.945 [kJ/mol]       0.01140532 [Eh]        2503.178 [cm^-1]
  Total ZPE, Electronic energy at 0 [K]                               -184.62013105 [Eh]

  Thermal Energy, E (includes ZPE)
    Electronic E            0.000 [kcal/mol]        0.000 [kJ/mol]       0.00000000 [Eh]
    Translational E         0.889 [kcal/mol]        3.718 [kJ/mol]       0.00141628 [Eh]
    Rotational E            0.592 [kcal/mol]        2.479 [kJ/mol]       0.00094418 [Eh]
    Vibrational E           7.353 [kcal/mol]       30.765 [kJ/mol]       0.01171776 [Eh]
  Correction E              8.834 [kcal/mol]       36.962 [kJ/mol]       0.01407822 [Eh]
  Total E, Electronic energy at  298.15 [K]                           -184.61745815 [Eh]

  Enthalpy, H_trans = E_trans + k_B * T
    Electronic H            0.000 [kcal/mol]        0.000 [kJ/mol]       0.00000000 [Eh]
    Translational H         1.481 [kcal/mol]        6.197 [kJ/mol]       0.00236046 [Eh]
    Rotational H            0.592 [kcal/mol]        2.479 [kJ/mol]       0.00094418 [Eh]
    Vibrational H           7.353 [kcal/mol]       30.765 [kJ/mol]       0.01171776 [Eh]
  Correction H              9.427 [kcal/mol]       39.441 [kJ/mol]       0.01502240 [Eh]
  Total H, Enthalpy at  298.15 [K]                                    -184.61651397 [Eh]

  Gibbs free energy, G = H - T * S
    Electronic G            0.000 [kcal/mol]        0.000 [kJ/mol]       0.00000000 [Eh]
    Translational G        -9.631 [kcal/mol]      -40.297 [kJ/mol]      -0.01534814 [Eh]
    Rotational G           -3.673 [kcal/mol]      -15.367 [kJ/mol]      -0.00585287 [Eh]
    Vibrational G           7.094 [kcal/mol]       29.679 [kJ/mol]       0.01130430 [Eh]
  Correction G             -6.210 [kcal/mol]      -25.984 [kJ/mol]      -0.00989670 [Eh]
  Total G, Free enthalpy at  298.15 [K]                               -184.64143307 [Eh]

*** Psi4 exiting successfully. Buy a developer a beer!
