                               Psi4 1.3.2 release

  ==> Input File <==

--------------------------------------------------------------------------
memory 144 GB

molecule {
0 1
O 0.0000000000 0.0000000000 0.0000000000
C 0.0000000000 0.0000000000 1.1584320400
S 0.0000000000 0.0000000000 2.7252829900
}

set dynamic_level 1
set basis cc-pV(D+d)Z

optimize("wB97M-V")
frequencies("wB97M-V")
--------------------------------------------------------------------------

    Molecular point group: c2v
  Charge       = 0
  Multiplicity = 1
  Basis Set: CC-PV(D+D)Z
    Blend: CC-PV(D+D)Z
  Basis Set: (CC-PV(D+D)Z AUX)
    Blend: CC-PVDZ-JKFIT
  @DF-RKS Final Energy:  -511.50631597862770
    Total Energy =                       -511.5063159786276401
    Molecular point group: c2v
  Basis Set: CC-PV(D+D)Z
    Blend: CC-PV(D+D)Z
  Basis Set: (CC-PV(D+D)Z AUX)
    Blend: CC-PVDZ-JKFIT
  @DF-RKS Final Energy:  -511.50631385926982
    Total Energy =                       -511.5063138592698238
  Basis Set: CC-PV(D+D)Z
    Blend: CC-PV(D+D)Z
  Basis Set: (CC-PV(D+D)Z AUX)
    Blend: CC-PVDZ-JKFIT
  @DF-RKS Final Energy:  -511.50631574077966
    Total Energy =                       -511.5063157407796552
  Basis Set: CC-PV(D+D)Z
    Blend: CC-PV(D+D)Z
  Basis Set: (CC-PV(D+D)Z AUX)
    Blend: CC-PVDZ-JKFIT
  @DF-RKS Final Energy:  -511.50631999021027
    Total Energy =                       -511.5063199902103293
  @DF-RKS Final Energy:  -511.50630915991707
    Total Energy =                       -511.5063091599170662
  @DF-RKS Final Energy:  -511.50632363657144
    Total Energy =                       -511.5063236365714374
  @DF-RKS Final Energy:  -511.50632181593284
    Total Energy =                       -511.5063218159328358
  @DF-RKS Final Energy:  -511.50632309545529
    Total Energy =                       -511.5063230954552864
  @DF-RKS Final Energy:  -511.50632350152915
    Total Energy =                       -511.5063235015292094
  @DF-RKS Final Energy:  -511.50632098183303
    Total Energy =                       -511.5063209818330279
  @DF-RKS Final Energy:  -511.50632393276095
    Total Energy =                       -511.5063239327610063
  @DF-RKS Final Energy:  -511.50632268075202
    Total Energy =                       -511.5063226807520209
  @DF-RKS Final Energy:  -511.50632281957377
    Total Energy =                       -511.5063228195737679
  @DF-RKS Final Energy:  -511.50632259517283
    Total Energy =                       -511.5063225951728327
  @DF-RKS Final Energy:  -511.50632248189419
    Total Energy =                       -511.5063224818941308
  **** Optimization is complete! (in 3 steps) ****
    Final optimized geometry and variables:
  @DF-RKS Final Energy:  -511.50632393276072
    Total Energy =                       -511.5063239327607221
  @DF-RKS Final Energy:  -511.50632268085906
    Total Energy =                       -511.5063226808590571
  @DF-RKS Final Energy:  -511.50632281969200
    Total Energy =                       -511.5063228196920022
  @DF-RKS Final Energy:  -511.50632259507989
    Total Energy =                       -511.5063225950798937
  @DF-RKS Final Energy:  -511.50632248196052
    Total Energy =                       -511.5063224819605239
  @DF-RKS Final Energy:  -511.50632393276118
    Total Energy =                       -511.5063239327611768
  @DF-RKS Final Energy:  -511.50632268085911
    Total Energy =                       -511.5063226808591139
  @DF-RKS Final Energy:  -511.50632281969217
    Total Energy =                       -511.5063228196921727
  @DF-RKS Final Energy:  -511.50632259508080
    Total Energy =                       -511.5063225950808032
  @DF-RKS Final Energy:  -511.50632248196086
    Total Energy =                       -511.5063224819608649
  Basis Set: CC-PV(D+D)Z
    Blend: CC-PV(D+D)Z
  Basis Set: (CC-PV(D+D)Z AUX)
    Blend: CC-PVDZ-JKFIT
  @DF-RKS Final Energy:  -511.50632318067898
    Total Energy =                       -511.5063231806789759
  Basis Set: CC-PV(D+D)Z
    Blend: CC-PV(D+D)Z
  Basis Set: (CC-PV(D+D)Z AUX)
    Blend: CC-PVDZ-JKFIT
  @DF-RKS Final Energy:  -511.50632315337964
    Total Energy =                       -511.5063231533796966
  Multiplicity = 1
  Basis Set: CC-PV(D+D)Z
    Blend: CC-PV(D+D)Z
  Basis Set: (CC-PV(D+D)Z AUX)
    Blend: CC-PVDZ-JKFIT
  @DF-RKS Final Energy:  -511.50632380047961
    Total Energy =                       -511.5063238004795494
    Molecular point group: cs

    Geometry (in Angstrom), charge = 0, multiplicity = 1:

       Center              X                  Y                   Z               Mass
    ------------   -----------------  -----------------  -----------------  -----------------
         O            0.000000000000    -0.000287459201    -1.686058895446    15.994914619570
         C            0.000000000000     0.000665785281    -0.528110598033    12.000000000000
         S            0.000000000000    -0.000106078145     1.041712157806    31.972071174400

  Charge       = 0
  Multiplicity = 1
  Basis Set: CC-PV(D+D)Z
    Blend: CC-PV(D+D)Z
  Basis Set: (CC-PV(D+D)Z AUX)
    Blend: CC-PVDZ-JKFIT

    Orbital Energies [Eh]
    ---------------------

    Doubly Occupied:

       1Ap   -89.226714     2Ap   -19.437852     3Ap   -10.528083
       4Ap    -8.149035     5Ap    -6.059929     1App   -6.052594
       6Ap    -6.052594     7Ap    -1.275160     8Ap    -0.941044
       9Ap    -0.664495    10Ap    -0.587241     2App   -0.587241
      11Ap    -0.570201     3App   -0.388731    12Ap    -0.388731

  @DF-RKS Final Energy:  -511.50632380019340

   => Energetics <=

    Nuclear Repulsion Energy =             79.1282738717755336
    One-Electron Energy =                -860.7191430357279387
    Two-Electron Energy =                 299.8665136567664717
    DFT Exchange-Correlation Energy =     -29.9065341057177534
    Empirical Dispersion Energy =           0.0000000000000000
    VV10 Nonlocal Energy =                  0.1245658127103086
    Total Energy =                       -511.5063238001933996

  Dipole Moment: [D]
     X:     0.0000      Y:     0.0010      Z:     0.4401     Total:     0.4402

  Vibration                       6                   7                   8
  Freq [cm^-1]                 528.8091            529.3809            892.3707
  Irrep                           B1                  B2                  A1
  Reduced mass [u]             13.0329             13.0329             19.6043
  Force const [mDyne/A]         2.1473              2.1519              9.1980

  Vibration                       9
  Freq [cm^-1]                2156.5695
  Irrep                           A1
  Reduced mass [u]             13.1417
  Force const [mDyne/A]        36.0104

  ==> Thermochemistry Components <==

  Entropy, S
    Electronic S            0.000 [cal/(mol K)]        0.000 [J/(mol K)]       0.00000000 [mEh/K] (multiplicity = 1)
    Translational S        38.194 [cal/(mol K)]      159.802 [J/(mol K)]       0.06086550 [mEh/K] (mol. weight = 59.9670 [u], P = 101325.00 [Pa])
    Rotational S           15.766 [cal/(mol K)]       65.967 [J/(mol K)]       0.02512544 [mEh/K] (symmetry no. = 1)
    Vibrational S           1.323 [cal/(mol K)]        5.536 [J/(mol K)]       0.00210846 [mEh/K]
  Total S                  55.283 [cal/(mol K)]      231.305 [J/(mol K)]       0.08809941 [mEh/K]
  Correction S              0.000 [cal/(mol K)]        0.000 [J/(mol K)]       0.00000000 [mEh/K]

  Constant volume heat capacity, Cv
    Electronic Cv           0.000 [cal/(mol K)]        0.000 [J/(mol K)]       0.00000000 [mEh/K]
    Translational Cv        2.981 [cal/(mol K)]       12.472 [J/(mol K)]       0.00475022 [mEh/K]
    Rotational Cv           1.987 [cal/(mol K)]        8.314 [J/(mol K)]       0.00316681 [mEh/K]
    Vibrational Cv          2.888 [cal/(mol K)]       12.085 [J/(mol K)]       0.00460278 [mEh/K]
  Total Cv                  7.856 [cal/(mol K)]       32.871 [J/(mol K)]       0.01251981 [mEh/K]
  Correction Cv             0.000 [cal/(mol K)]        0.000 [J/(mol K)]       0.00000000 [mEh/K]

  Constant pressure heat capacity, Cp
    Electronic Cp           0.000 [cal/(mol K)]        0.000 [J/(mol K)]       0.00000000 [mEh/K]
    Translational Cp        4.968 [cal/(mol K)]       20.786 [J/(mol K)]       0.00791703 [mEh/K]
    Rotational Cp           1.987 [cal/(mol K)]        8.314 [J/(mol K)]       0.00316681 [mEh/K]
    Vibrational Cp          2.888 [cal/(mol K)]       12.085 [J/(mol K)]       0.00460278 [mEh/K]
  Total Cp                  9.844 [cal/(mol K)]       41.185 [J/(mol K)]       0.01568662 [mEh/K]
  Correction Cp             0.000 [cal/(mol K)]        0.000 [J/(mol K)]       0.00000000 [mEh/K]

  ==> Thermochemistry Energy Analysis <==

  Raw electronic energy, E0
  Total E0, Electronic energy at well bottom at 0 [K]                 -511.50632393 [Eh]

  Zero-point energy, ZPE_vib = Sum_i nu_i / 2
    Electronic ZPE          0.000 [kcal/mol]        0.000 [kJ/mol]       0.00000000 [Eh]
    Translational ZPE       0.000 [kcal/mol]        0.000 [kJ/mol]       0.00000000 [Eh]
    Rotational ZPE          0.000 [kcal/mol]        0.000 [kJ/mol]       0.00000000 [Eh]
    Vibrational ZPE         5.871 [kcal/mol]       24.566 [kJ/mol]       0.00935673 [Eh]        2053.565 [cm^-1]
  Correction ZPE            5.871 [kcal/mol]       24.566 [kJ/mol]       0.00935673 [Eh]        2053.565 [cm^-1]
  Total ZPE, Electronic energy at 0 [K]                               -511.49696720 [Eh]

  Thermal Energy, E (includes ZPE)
    Electronic E            0.000 [kcal/mol]        0.000 [kJ/mol]       0.00000000 [Eh]
    Translational E         0.889 [kcal/mol]        3.718 [kJ/mol]       0.00141628 [Eh]
    Rotational E            0.592 [kcal/mol]        2.479 [kJ/mol]       0.00094418 [Eh]
    Vibrational E           6.162 [kcal/mol]       25.781 [kJ/mol]       0.00981952 [Eh]
  Correction E              7.643 [kcal/mol]       31.979 [kJ/mol]       0.01217998 [Eh]
  Total E, Electronic energy at  298.15 [K]                           -511.49414395 [Eh]

  Enthalpy, H_trans = E_trans + k_B * T
    Electronic H            0.000 [kcal/mol]        0.000 [kJ/mol]       0.00000000 [Eh]
    Translational H         1.481 [kcal/mol]        6.197 [kJ/mol]       0.00236046 [Eh]
    Rotational H            0.592 [kcal/mol]        2.479 [kJ/mol]       0.00094418 [Eh]
    Vibrational H           6.162 [kcal/mol]       25.781 [kJ/mol]       0.00981952 [Eh]
  Correction H              8.236 [kcal/mol]       34.457 [kJ/mol]       0.01312416 [Eh]
  Total H, Enthalpy at  298.15 [K]                                    -511.49319977 [Eh]

  Gibbs free energy, G = H - T * S
    Electronic G            0.000 [kcal/mol]        0.000 [kJ/mol]       0.00000000 [Eh]
    Translational G        -9.906 [kcal/mol]      -41.448 [kJ/mol]      -0.01578659 [Eh]
    Rotational G           -4.108 [kcal/mol]      -17.189 [kJ/mol]      -0.00654697 [Eh]
    Vibrational G           5.767 [kcal/mol]       24.131 [kJ/mol]       0.00919088 [Eh]
  Correction G             -8.247 [kcal/mol]      -34.506 [kJ/mol]      -0.01314267 [Eh]
  Total G, Free enthalpy at  298.15 [K]                               -511.51946661 [Eh]

*** Psi4 exiting successfully. Buy a developer a beer!
