                               Psi4 1.3.2 release

  ==> Input File <==

--------------------------------------------------------------------------
memory 144 GB

molecule {
0 1
P 0.0000000000 0.0000000000 -0.0679917919
H 1.1903431933 0.0000000000 0.6964572780
H -0.5951715967 -1.0308674445 0.6964572780
H -0.5951715967 1.0308674445 0.6964572780
}

set dynamic_level 1
set basis cc-pV(D+d)Z

optimize("wB97M-V")
frequencies("wB97M-V")
--------------------------------------------------------------------------

    Molecular point group: cs
  Charge       = 0
  Multiplicity = 1
  Basis Set: CC-PV(D+D)Z
    Blend: CC-PV(D+D)Z
  Basis Set: (CC-PV(D+D)Z AUX)
    Blend: CC-PVDZ-JKFIT
  @DF-RKS Final Energy:  -343.10406094587063
    Total Energy =                       -343.1040609458706854
    Molecular point group: cs
  Basis Set: CC-PV(D+D)Z
    Blend: CC-PV(D+D)Z
  Basis Set: (CC-PV(D+D)Z AUX)
    Blend: CC-PVDZ-JKFIT
  @DF-RKS Final Energy:  -343.10405879812868
    Total Energy =                       -343.1040587981286194
  Basis Set: CC-PV(D+D)Z
    Blend: CC-PV(D+D)Z
  Basis Set: (CC-PV(D+D)Z AUX)
    Blend: CC-PVDZ-JKFIT
  @DF-RKS Final Energy:  -343.10405889085951
    Total Energy =                       -343.1040588908594486
  Basis Set: CC-PV(D+D)Z
    Blend: CC-PV(D+D)Z
  Basis Set: (CC-PV(D+D)Z AUX)
    Blend: CC-PVDZ-JKFIT
  @DF-RKS Final Energy:  -343.10403664392845
    Total Energy =                       -343.1040366439284526
  @DF-RKS Final Energy:  -343.10408296122540
    Total Energy =                       -343.1040829612254015
  @DF-RKS Final Energy:  -343.10404298768520
    Total Energy =                       -343.1040429876852045
  @DF-RKS Final Energy:  -343.10407528015560
    Total Energy =                       -343.1040752801555982
  @DF-RKS Final Energy:  -343.10404301399808
    Total Energy =                       -343.1040430139980231
  @DF-RKS Final Energy:  -343.10407525443298
    Total Energy =                       -343.1040752544328711
  @DF-RKS Final Energy:  -343.10417680376264
    Total Energy =                       -343.1041768037625843
  @DF-RKS Final Energy:  -343.10417482631880
    Total Energy =                       -343.1041748263187401
  @DF-RKS Final Energy:  -343.10417473059169
    Total Energy =                       -343.1041747305916374
  @DF-RKS Final Energy:  -343.10417403932746
    Total Energy =                       -343.1041740393274608
  @DF-RKS Final Energy:  -343.10417730473358
    Total Energy =                       -343.1041773047336392
  @DF-RKS Final Energy:  -343.10417583088827
    Total Energy =                       -343.1041758308882663
  @DF-RKS Final Energy:  -343.10417428546629
    Total Energy =                       -343.1041742854662857
  @DF-RKS Final Energy:  -343.10417582520461
    Total Energy =                       -343.1041758252046634
  @DF-RKS Final Energy:  -343.10417429067331
    Total Energy =                       -343.1041742906733134
  @DF-RKS Final Energy:  -343.10417877907224
    Total Energy =                       -343.1041787790721855
  @DF-RKS Final Energy:  -343.10417677289820
    Total Energy =                       -343.1041767728981995
  **** Optimization is complete! (in 3 steps) ****
    Final optimized geometry and variables:
  @DF-RKS Final Energy:  -343.10417707723968
    Total Energy =                       -343.1041770772396262
  @DF-RKS Final Energy:  -343.10417699419673
    Total Energy =                       -343.1041769941967345
  @DF-RKS Final Energy:  -343.10417707403553
    Total Energy =                       -343.1041770740354764
  @DF-RKS Final Energy:  -343.10417699626367
    Total Energy =                       -343.1041769962636181
  @DF-RKS Final Energy:  -343.10417562166310
    Total Energy =                       -343.1041756216631029
  @DF-RKS Final Energy:  -343.10417560184129
    Total Energy =                       -343.1041756018412912
  @DF-RKS Final Energy:  -343.10417350466088
    Total Energy =                       -343.1041735046608778
  @DF-RKS Final Energy:  -343.10417358162903
    Total Energy =                       -343.1041735816290270
  @DF-RKS Final Energy:  -343.10417443505725
    Total Energy =                       -343.1041744350573026
  @DF-RKS Final Energy:  -343.10417445668827
    Total Energy =                       -343.1041744566882699
  @DF-RKS Final Energy:  -343.10417643123924
    Total Energy =                       -343.1041764312392388
  @DF-RKS Final Energy:  -343.10417654998480
    Total Energy =                       -343.1041765499847429
  @DF-RKS Final Energy:  -343.10417443797041
    Total Energy =                       -343.1041744379703573
  @DF-RKS Final Energy:  -343.10417445453862
    Total Energy =                       -343.1041744545386223
  @DF-RKS Final Energy:  -343.10417445602189
    Total Energy =                       -343.1041744560218945
  @DF-RKS Final Energy:  -343.10417460814864
    Total Energy =                       -343.1041746081485826
  Basis Set: CC-PV(D+D)Z
    Blend: CC-PV(D+D)Z
  Basis Set: (CC-PV(D+D)Z AUX)
    Blend: CC-PVDZ-JKFIT
  @DF-RKS Final Energy:  -343.10417673436046
    Total Energy =                       -343.1041767343604647
  Basis Set: CC-PV(D+D)Z
    Blend: CC-PV(D+D)Z
  Basis Set: (CC-PV(D+D)Z AUX)
    Blend: CC-PVDZ-JKFIT
  @DF-RKS Final Energy:  -343.10417632239307
    Total Energy =                       -343.1041763223930730
  Multiplicity = 1
  Basis Set: CC-PV(D+D)Z
    Blend: CC-PV(D+D)Z
  Basis Set: (CC-PV(D+D)Z AUX)
    Blend: CC-PVDZ-JKFIT
  @DF-RKS Final Energy:  -343.10417638553628
    Total Energy =                       -343.1041763855362774
    Molecular point group: c1

    Geometry (in Angstrom), charge = 0, multiplicity = 1:

       Center              X                  Y                   Z               Mass
    ------------   -----------------  -----------------  -----------------  -----------------
         P           -0.000000954959     0.069343449574    -0.000106247191    30.973761998420
         H            0.594339095127    -0.711619500666     1.031990980415     1.007825032230
         H            0.596974711641    -0.709151589530    -1.031335750441     1.007825032230
         H           -1.191284457767    -0.710380086412     0.002610093969     1.007825032230

  Charge       = 0
  Multiplicity = 1
  Basis Set: CC-PV(D+D)Z
    Blend: CC-PV(D+D)Z
  Basis Set: (CC-PV(D+D)Z AUX)
    Blend: CC-PVDZ-JKFIT

    Orbital Energies [Eh]
    ---------------------

    Doubly Occupied:

       1A    -77.383444     2A     -6.723546     3A     -4.835904
       4A     -4.835901     5A     -4.832178     6A     -0.756824
       7A     -0.473648     8A     -0.472980     9A     -0.366538

  @DF-RKS Final Energy:  -343.10417638550189

   => Energetics <=

    Nuclear Repulsion Energy =             17.4946825382796121
    One-Electron Energy =                -508.3616305015539183
    Two-Electron Energy =                 166.0864307437971092
    DFT Exchange-Correlation Energy =     -18.3991078429010457
    Empirical Dispersion Energy =           0.0000000000000000
    VV10 Nonlocal Energy =                  0.0754486768763278
    Total Energy =                       -343.1041763855019440

  Dipole Moment: [D]
     X:     0.0000      Y:    -0.6449      Z:    -0.0027     Total:     0.6449

  Vibration                       7                   8                   9
  Freq [cm^-1]                1016.7235           1126.8511           1577.2622
  Irrep                           Ap                  Ap                 App
  Reduced mass [u]              1.0740              1.0251              1.0377
  Force const [mDyne/A]         0.6541              0.7669              1.5210

  Vibration                       10                  11                  12
  Freq [cm^-1]                2419.8282           2427.4316           2651.0175
  Irrep                           Ap                  Ap                 App
  Reduced mass [u]              1.0331              1.0405              1.0279
  Force const [mDyne/A]         3.5641              3.6124              4.2562

  ==> Thermochemistry Components <==

  Entropy, S
    Electronic S            0.000 [cal/(mol K)]        0.000 [J/(mol K)]       0.00000000 [mEh/K] (multiplicity = 1)
    Translational S        36.502 [cal/(mol K)]      152.724 [J/(mol K)]       0.05816968 [mEh/K] (mol. weight = 33.9972 [u], P = 101325.00 [Pa])
    Rotational S           15.708 [cal/(mol K)]       65.721 [J/(mol K)]       0.02503164 [mEh/K] (symmetry no. = 1)
    Vibrational S           0.152 [cal/(mol K)]        0.637 [J/(mol K)]       0.00024265 [mEh/K]
  Total S                  52.362 [cal/(mol K)]      219.082 [J/(mol K)]       0.08344398 [mEh/K]
  Correction S              0.000 [cal/(mol K)]        0.000 [J/(mol K)]       0.00000000 [mEh/K]

  Constant volume heat capacity, Cv
    Electronic Cv           0.000 [cal/(mol K)]        0.000 [J/(mol K)]       0.00000000 [mEh/K]
    Translational Cv        2.981 [cal/(mol K)]       12.472 [J/(mol K)]       0.00475022 [mEh/K]
    Rotational Cv           2.981 [cal/(mol K)]       12.472 [J/(mol K)]       0.00475022 [mEh/K]
    Vibrational Cv          0.679 [cal/(mol K)]        2.843 [J/(mol K)]       0.00108284 [mEh/K]
  Total Cv                  6.641 [cal/(mol K)]       27.786 [J/(mol K)]       0.01058327 [mEh/K]
  Correction Cv             0.000 [cal/(mol K)]        0.000 [J/(mol K)]       0.00000000 [mEh/K]

  Constant pressure heat capacity, Cp
    Electronic Cp           0.000 [cal/(mol K)]        0.000 [J/(mol K)]       0.00000000 [mEh/K]
    Translational Cp        4.968 [cal/(mol K)]       20.786 [J/(mol K)]       0.00791703 [mEh/K]
    Rotational Cp           2.981 [cal/(mol K)]       12.472 [J/(mol K)]       0.00475022 [mEh/K]
    Vibrational Cp          0.679 [cal/(mol K)]        2.843 [J/(mol K)]       0.00108284 [mEh/K]
  Total Cp                  8.628 [cal/(mol K)]       36.101 [J/(mol K)]       0.01375008 [mEh/K]
  Correction Cp             0.000 [cal/(mol K)]        0.000 [J/(mol K)]       0.00000000 [mEh/K]

  ==> Thermochemistry Energy Analysis <==

  Raw electronic energy, E0
  Total E0, Electronic energy at well bottom at 0 [K]                 -343.10417878 [Eh]

  Zero-point energy, ZPE_vib = Sum_i nu_i / 2
    Electronic ZPE          0.000 [kcal/mol]        0.000 [kJ/mol]       0.00000000 [Eh]
    Translational ZPE       0.000 [kcal/mol]        0.000 [kJ/mol]       0.00000000 [Eh]
    Rotational ZPE          0.000 [kcal/mol]        0.000 [kJ/mol]       0.00000000 [Eh]
    Vibrational ZPE        16.039 [kcal/mol]       67.105 [kJ/mol]       0.02555902 [Eh]        5609.557 [cm^-1]
  Correction ZPE           16.039 [kcal/mol]       67.105 [kJ/mol]       0.02555902 [Eh]        5609.557 [cm^-1]
  Total ZPE, Electronic energy at 0 [K]                               -343.07861976 [Eh]

  Thermal Energy, E (includes ZPE)
    Electronic E            0.000 [kcal/mol]        0.000 [kJ/mol]       0.00000000 [Eh]
    Translational E         0.889 [kcal/mol]        3.718 [kJ/mol]       0.00141628 [Eh]
    Rotational E            0.889 [kcal/mol]        3.718 [kJ/mol]       0.00141628 [Eh]
    Vibrational E          16.077 [kcal/mol]       67.265 [kJ/mol]       0.02561976 [Eh]
  Correction E             17.854 [kcal/mol]       74.702 [kJ/mol]       0.02845231 [Eh]
  Total E, Electronic energy at  298.15 [K]                           -343.07572647 [Eh]

  Enthalpy, H_trans = E_trans + k_B * T
    Electronic H            0.000 [kcal/mol]        0.000 [kJ/mol]       0.00000000 [Eh]
    Translational H         1.481 [kcal/mol]        6.197 [kJ/mol]       0.00236046 [Eh]
    Rotational H            0.889 [kcal/mol]        3.718 [kJ/mol]       0.00141628 [Eh]
    Vibrational H          16.077 [kcal/mol]       67.265 [kJ/mol]       0.02561976 [Eh]
  Correction H             18.447 [kcal/mol]       77.180 [kJ/mol]       0.02939649 [Eh]
  Total H, Enthalpy at  298.15 [K]                                    -343.07478228 [Eh]

  Gibbs free energy, G = H - T * S
    Electronic G            0.000 [kcal/mol]        0.000 [kJ/mol]       0.00000000 [Eh]
    Translational G        -9.402 [kcal/mol]      -39.337 [kJ/mol]      -0.01498283 [Eh]
    Rotational G           -3.794 [kcal/mol]      -15.876 [kJ/mol]      -0.00604691 [Eh]
    Vibrational G          16.031 [kcal/mol]       67.075 [kJ/mol]       0.02554741 [Eh]
  Correction G              2.835 [kcal/mol]       11.861 [kJ/mol]       0.00451767 [Eh]
  Total G, Free enthalpy at  298.15 [K]                               -343.09966111 [Eh]

*** Psi4 exiting successfully. Buy a developer a beer!
