                               Psi4 1.3.2 release

  ==> Input File <==

--------------------------------------------------------------------------
memory 144 GB

molecule {
0 1
Si 0.0000000000 0.0000000000 0.0000000000
O 0.0000000000 0.0000000000 1.5170406700
}

set dynamic_level 1
set basis cc-pV(D+d)Z

optimize("wB97M-V")
frequencies("wB97M-V")
--------------------------------------------------------------------------

    Molecular point group: c2v
  Charge       = 0
  Multiplicity = 1
  Basis Set: CC-PV(D+D)Z
    Blend: CC-PV(D+D)Z
  Basis Set: (CC-PV(D+D)Z AUX)
    Blend: CC-PVDZ-JKFIT
  @DF-RKS Final Energy:  -364.69660906841960
    Total Energy =                       -364.6966090684196047
    Molecular point group: c2v
  Basis Set: CC-PV(D+D)Z
    Blend: CC-PV(D+D)Z
  Basis Set: (CC-PV(D+D)Z AUX)
    Blend: CC-PVDZ-JKFIT
  @DF-RKS Final Energy:  -364.69660280700521
    Total Energy =                       -364.6966028070051493
  Basis Set: CC-PV(D+D)Z
    Blend: CC-PV(D+D)Z
  Basis Set: (CC-PV(D+D)Z AUX)
    Blend: CC-PVDZ-JKFIT
  @DF-RKS Final Energy:  -364.69661384140591
    Total Energy =                       -364.6966138414059060
  Basis Set: CC-PV(D+D)Z
    Blend: CC-PV(D+D)Z
  Basis Set: (CC-PV(D+D)Z AUX)
    Blend: CC-PVDZ-JKFIT
  @DF-RKS Final Energy:  -364.69661903145413
    Total Energy =                       -364.6966190314541336
  @DF-RKS Final Energy:  -364.69661748132387
    Total Energy =                       -364.6966174813238695
  @DF-RKS Final Energy:  -364.69661907157268
    Total Energy =                       -364.6966190715727976
  @DF-RKS Final Energy:  -364.69661924111978
    Total Energy =                       -364.6966192411197767
  @DF-RKS Final Energy:  -364.69661849104892
    Total Energy =                       -364.6966184910489233
  @DF-RKS Final Energy:  -364.69661847728395
    Total Energy =                       -364.6966184772838915
  **** Optimization is complete! (in 3 steps) ****
    Final optimized geometry and variables:
  @DF-RKS Final Energy:  -364.69661924111364
    Total Energy =                       -364.6966192411136376
  @DF-RKS Final Energy:  -364.69661849112555
    Total Energy =                       -364.6966184911254913
  Basis Set: CC-PV(D+D)Z
    Blend: CC-PV(D+D)Z
  Basis Set: (CC-PV(D+D)Z AUX)
    Blend: CC-PVDZ-JKFIT
  @DF-RKS Final Energy:  -364.69661847735512
    Total Energy =                       -364.6966184773550594
  Basis Set: CC-PV(D+D)Z
    Blend: CC-PV(D+D)Z
  Basis Set: (CC-PV(D+D)Z AUX)
    Blend: CC-PVDZ-JKFIT
  @DF-RKS Final Energy:  -364.69661924111347
    Total Energy =                       -364.6966192411135239
  Multiplicity = 1
  Basis Set: CC-PV(D+D)Z
    Blend: CC-PV(D+D)Z
  Basis Set: (CC-PV(D+D)Z AUX)
    Blend: CC-PVDZ-JKFIT
  @DF-RKS Final Energy:  -364.69661849112504
    Total Energy =                       -364.6966184911250366
    Molecular point group: c2v

    Geometry (in Angstrom), charge = 0, multiplicity = 1:

       Center              X                  Y                   Z               Mass
    ------------   -----------------  -----------------  -----------------  -----------------
         SI           0.000000000000     0.000000000000    -0.550416945576    27.976926534650
         O            0.000000000000     0.000000000000     0.962741897414    15.994914619570

  Charge       = 0
  Multiplicity = 1
  Basis Set: CC-PV(D+D)Z
    Blend: CC-PV(D+D)Z
  Basis Set: (CC-PV(D+D)Z AUX)
    Blend: CC-PVDZ-JKFIT

    Orbital Energies [Eh]
    ---------------------

    Doubly Occupied:

       1A1   -66.446178     2A1   -19.326208     3A1    -5.473690
       1B1    -3.788105     1B2    -3.788105     4A1    -3.783759
       5A1    -1.064179     6A1    -0.538030     2B1    -0.426443
       2B2    -0.426443     7A1    -0.399024

  @DF-RKS Final Energy:  -364.69661847735495

   => Energetics <=

    Nuclear Repulsion Energy =             39.1682921258501793
    One-Electron Energy =                -582.8513772022529338
    Two-Electron Energy =                 201.1598508116126425
    DFT Exchange-Correlation Energy =     -22.2664546384911155
    Empirical Dispersion Energy =           0.0000000000000000
    VV10 Nonlocal Energy =                  0.0930704259263426
    Total Energy =                       -364.6966184773549458

  Dipole Moment: [D]
     X:     0.0000      Y:     0.0000      Z:    -2.9091     Total:     2.9091

  Vibration                       6
  Freq [cm^-1]                1264.9138
  Irrep                           A1
  Reduced mass [u]             18.9466
  Force const [mDyne/A]        17.8609

  ==> Thermochemistry Components <==

  Entropy, S
    Electronic S            0.000 [cal/(mol K)]        0.000 [J/(mol K)]       0.00000000 [mEh/K] (multiplicity = 1)
    Translational S        37.269 [cal/(mol K)]      155.933 [J/(mol K)]       0.05939177 [mEh/K] (mol. weight = 43.9718 [u], P = 101325.00 [Pa])
    Rotational S           13.232 [cal/(mol K)]       55.363 [J/(mol K)]       0.02108651 [mEh/K] (symmetry no. = 1)
    Vibrational S           0.032 [cal/(mol K)]        0.132 [J/(mol K)]       0.00005036 [mEh/K]
  Total S                  50.532 [cal/(mol K)]      211.428 [J/(mol K)]       0.08052864 [mEh/K]
  Correction S              0.000 [cal/(mol K)]        0.000 [J/(mol K)]       0.00000000 [mEh/K]

  Constant volume heat capacity, Cv
    Electronic Cv           0.000 [cal/(mol K)]        0.000 [J/(mol K)]       0.00000000 [mEh/K]
    Translational Cv        2.981 [cal/(mol K)]       12.472 [J/(mol K)]       0.00475022 [mEh/K]
    Rotational Cv           1.987 [cal/(mol K)]        8.314 [J/(mol K)]       0.00316681 [mEh/K]
    Vibrational Cv          0.166 [cal/(mol K)]        0.695 [J/(mol K)]       0.00026475 [mEh/K]
  Total Cv                  5.134 [cal/(mol K)]       21.481 [J/(mol K)]       0.00818178 [mEh/K]
  Correction Cv             0.000 [cal/(mol K)]        0.000 [J/(mol K)]       0.00000000 [mEh/K]

  Constant pressure heat capacity, Cp
    Electronic Cp           0.000 [cal/(mol K)]        0.000 [J/(mol K)]       0.00000000 [mEh/K]
    Translational Cp        4.968 [cal/(mol K)]       20.786 [J/(mol K)]       0.00791703 [mEh/K]
    Rotational Cp           1.987 [cal/(mol K)]        8.314 [J/(mol K)]       0.00316681 [mEh/K]
    Vibrational Cp          0.166 [cal/(mol K)]        0.695 [J/(mol K)]       0.00026475 [mEh/K]
  Total Cp                  7.121 [cal/(mol K)]       29.796 [J/(mol K)]       0.01134859 [mEh/K]
  Correction Cp             0.000 [cal/(mol K)]        0.000 [J/(mol K)]       0.00000000 [mEh/K]

  ==> Thermochemistry Energy Analysis <==

  Raw electronic energy, E0
  Total E0, Electronic energy at well bottom at 0 [K]                 -364.69661924 [Eh]

  Zero-point energy, ZPE_vib = Sum_i nu_i / 2
    Electronic ZPE          0.000 [kcal/mol]        0.000 [kJ/mol]       0.00000000 [Eh]
    Translational ZPE       0.000 [kcal/mol]        0.000 [kJ/mol]       0.00000000 [Eh]
    Rotational ZPE          0.000 [kcal/mol]        0.000 [kJ/mol]       0.00000000 [Eh]
    Vibrational ZPE         1.808 [kcal/mol]        7.566 [kJ/mol]       0.00288169 [Eh]         632.457 [cm^-1]
  Correction ZPE            1.808 [kcal/mol]        7.566 [kJ/mol]       0.00288169 [Eh]         632.457 [cm^-1]
  Total ZPE, Electronic energy at 0 [K]                               -364.69373756 [Eh]

  Thermal Energy, E (includes ZPE)
    Electronic E            0.000 [kcal/mol]        0.000 [kJ/mol]       0.00000000 [Eh]
    Translational E         0.889 [kcal/mol]        3.718 [kJ/mol]       0.00141628 [Eh]
    Rotational E            0.592 [kcal/mol]        2.479 [kJ/mol]       0.00094418 [Eh]
    Vibrational E           1.816 [kcal/mol]        7.600 [kJ/mol]       0.00289459 [Eh]
  Correction E              3.298 [kcal/mol]       13.797 [kJ/mol]       0.00525505 [Eh]
  Total E, Electronic energy at  298.15 [K]                           -364.69136419 [Eh]

  Enthalpy, H_trans = E_trans + k_B * T
    Electronic H            0.000 [kcal/mol]        0.000 [kJ/mol]       0.00000000 [Eh]
    Translational H         1.481 [kcal/mol]        6.197 [kJ/mol]       0.00236046 [Eh]
    Rotational H            0.592 [kcal/mol]        2.479 [kJ/mol]       0.00094418 [Eh]
    Vibrational H           1.816 [kcal/mol]        7.600 [kJ/mol]       0.00289459 [Eh]
  Correction H              3.890 [kcal/mol]       16.276 [kJ/mol]       0.00619923 [Eh]
  Total H, Enthalpy at  298.15 [K]                                    -364.69042001 [Eh]

  Gibbs free energy, G = H - T * S
    Electronic G            0.000 [kcal/mol]        0.000 [kJ/mol]       0.00000000 [Eh]
    Translational G        -9.631 [kcal/mol]      -40.294 [kJ/mol]      -0.01534720 [Eh]
    Rotational G           -3.353 [kcal/mol]      -14.027 [kJ/mol]      -0.00534276 [Eh]
    Vibrational G           1.807 [kcal/mol]        7.560 [kJ/mol]       0.00287957 [Eh]
  Correction G            -11.176 [kcal/mol]      -46.761 [kJ/mol]      -0.01781038 [Eh]
  Total G, Free enthalpy at  298.15 [K]                               -364.71442962 [Eh]

*** Psi4 exiting successfully. Buy a developer a beer!
