                               Psi4 1.3.2 release

  ==> Input File <==

--------------------------------------------------------------------------
memory 144 GB

molecule {
0 1
S 0.0000000000 0.0000000000 0.0000000000
O 0.0000000000 0.0000000000 1.4355085900
O 1.2508167239 0.0000000000 -0.7043737894
}

set dynamic_level 1
set basis cc-pV(D+d)Z

optimize("wB97M-V")
frequencies("wB97M-V")
--------------------------------------------------------------------------

    Molecular point group: c2v
  Charge       = 0
  Multiplicity = 1
  Basis Set: CC-PV(D+D)Z
    Blend: CC-PV(D+D)Z
  Basis Set: (CC-PV(D+D)Z AUX)
    Blend: CC-PVDZ-JKFIT
  @DF-RKS Final Energy:  -548.56398458145270
    Total Energy =                       -548.5639845814527007
    Molecular point group: c2v
  Basis Set: CC-PV(D+D)Z
    Blend: CC-PV(D+D)Z
  Basis Set: (CC-PV(D+D)Z AUX)
    Blend: CC-PVDZ-JKFIT
  @DF-RKS Final Energy:  -548.56399190080879
    Total Energy =                       -548.5639919008087872
  Basis Set: CC-PV(D+D)Z
    Blend: CC-PV(D+D)Z
  Basis Set: (CC-PV(D+D)Z AUX)
    Blend: CC-PVDZ-JKFIT
  @DF-RKS Final Energy:  -548.56397649864414
    Total Energy =                       -548.5639764986441378
  Basis Set: CC-PV(D+D)Z
    Blend: CC-PV(D+D)Z
  Basis Set: (CC-PV(D+D)Z AUX)
    Blend: CC-PVDZ-JKFIT
  @DF-RKS Final Energy:  -548.56397515719209
    Total Energy =                       -548.5639751571919760
  @DF-RKS Final Energy:  -548.56399308424147
    Total Energy =                       -548.5639930842414742
  @DF-RKS Final Energy:  -548.56402939767543
    Total Energy =                       -548.5640293976754265
  @DF-RKS Final Energy:  -548.56403145340755
    Total Energy =                       -548.5640314534075515
  @DF-RKS Final Energy:  -548.56402658716570
    Total Energy =                       -548.5640265871656993
  @DF-RKS Final Energy:  -548.56402626407771
    Total Energy =                       -548.5640262640777109
  @DF-RKS Final Energy:  -548.56403162682977
    Total Energy =                       -548.5640316268297738
  @DF-RKS Final Energy:  -548.56403409707252
    Total Energy =                       -548.5640340970726356
  @DF-RKS Final Energy:  -548.56403368757992
    Total Energy =                       -548.5640336875801495
  @DF-RKS Final Energy:  -548.56403375559546
    Total Energy =                       -548.5640337555953465
  @DF-RKS Final Energy:  -548.56403356354599
    Total Energy =                       -548.5640335635461042
  @DF-RKS Final Energy:  -548.56403373391925
    Total Energy =                       -548.5640337339192456
  **** Optimization is complete! (in 3 steps) ****
    Final optimized geometry and variables:
  @DF-RKS Final Energy:  -548.56403409707275
    Total Energy =                       -548.5640340970727493
  @DF-RKS Final Energy:  -548.56403368758015
    Total Energy =                       -548.5640336875801495
  @DF-RKS Final Energy:  -548.56403375559546
    Total Energy =                       -548.5640337555955739
  @DF-RKS Final Energy:  -548.56403356354622
    Total Energy =                       -548.5640335635462179
  @DF-RKS Final Energy:  -548.56403373391902
    Total Energy =                       -548.5640337339190182
  @DF-RKS Final Energy:  -548.56403409707264
    Total Energy =                       -548.5640340970725219
  @DF-RKS Final Energy:  -548.56403368758004
    Total Energy =                       -548.5640336875799221
  @DF-RKS Final Energy:  -548.56403375559569
    Total Energy =                       -548.5640337555956876
  @DF-RKS Final Energy:  -548.56403356354610
    Total Energy =                       -548.5640335635461042
  Basis Set: CC-PV(D+D)Z
    Blend: CC-PV(D+D)Z
  Basis Set: (CC-PV(D+D)Z AUX)
    Blend: CC-PVDZ-JKFIT
  @DF-RKS Final Energy:  -548.56403373391970
    Total Energy =                       -548.5640337339195867
  Basis Set: CC-PV(D+D)Z
    Blend: CC-PV(D+D)Z
  Basis Set: (CC-PV(D+D)Z AUX)
    Blend: CC-PVDZ-JKFIT
  @DF-RKS Final Energy:  -548.56403394778113
    Total Energy =                       -548.5640339477811267
  Multiplicity = 1
  Basis Set: CC-PV(D+D)Z
    Blend: CC-PV(D+D)Z
  Basis Set: (CC-PV(D+D)Z AUX)
    Blend: CC-PVDZ-JKFIT
  @DF-RKS Final Energy:  -548.56403370969542
    Total Energy =                       -548.5640337096955363
    Molecular point group: cs

    Geometry (in Angstrom), charge = 0, multiplicity = 1:

       Center              X                  Y                   Z               Mass
    ------------   -----------------  -----------------  -----------------  -----------------
         S            0.000000000000    -0.000305723352    -0.364113794928    31.972071174400
         O            0.000000000000     1.242603225372     0.364090733582    15.994914619570
         O            0.000000000000    -1.241992118093     0.363732605518    15.994914619570

  Charge       = 0
  Multiplicity = 1
  Basis Set: CC-PV(D+D)Z
    Blend: CC-PV(D+D)Z
  Basis Set: (CC-PV(D+D)Z AUX)
    Blend: CC-PVDZ-JKFIT

    Orbital Energies [Eh]
    ---------------------

    Doubly Occupied:

       1Ap   -89.380163     2Ap   -19.394493     3Ap   -19.394323
       4Ap    -8.282082     5Ap    -6.191108     1App   -6.191090
       6Ap    -6.185919     7Ap    -1.270524     8Ap    -1.176027
       9Ap    -0.746305    10Ap    -0.596423     2App   -0.595923
      11Ap    -0.591173     3App   -0.460880    12Ap    -0.451095
      13Ap    -0.421936

  @DF-RKS Final Energy:  -548.56403314553211

   => Energetics <=

    Nuclear Repulsion Energy =            107.7131419671492552
    One-Electron Energy =                -969.6053253701771837
    Two-Electron Energy =                 345.5896682179894697
    DFT Exchange-Correlation Energy =     -32.3943292652129742
    Empirical Dispersion Energy =           0.0000000000000000
    VV10 Nonlocal Energy =                  0.1328113047194028
    Total Energy =                       -548.5640331455319938

  Dipole Moment: [D]
     X:     0.0000      Y:    -0.0058      Z:    -1.7916     Total:     1.7916

  Vibration                       7                   8                   9
  Freq [cm^-1]                 527.8228           1209.5215           1418.2831
  Irrep                           A1                  A1                  B2
  Reduced mass [u]             18.6251             17.9459             20.3320
  Force const [mDyne/A]         3.0572             15.4683             24.0966

  ==> Thermochemistry Components <==

  Entropy, S
    Electronic S            0.000 [cal/(mol K)]        0.000 [J/(mol K)]       0.00000000 [mEh/K] (multiplicity = 1)
    Translational S        38.386 [cal/(mol K)]      160.607 [J/(mol K)]       0.06117186 [mEh/K] (mol. weight = 63.9619 [u], P = 101325.00 [Pa])
    Rotational S           20.249 [cal/(mol K)]       84.723 [J/(mol K)]       0.03226933 [mEh/K] (symmetry no. = 2)
    Vibrational S           0.648 [cal/(mol K)]        2.713 [J/(mol K)]       0.00103340 [mEh/K]
  Total S                  59.284 [cal/(mol K)]      248.043 [J/(mol K)]       0.09447459 [mEh/K]
  Correction S              0.000 [cal/(mol K)]        0.000 [J/(mol K)]       0.00000000 [mEh/K]

  Constant volume heat capacity, Cv
    Electronic Cv           0.000 [cal/(mol K)]        0.000 [J/(mol K)]       0.00000000 [mEh/K]
    Translational Cv        2.981 [cal/(mol K)]       12.472 [J/(mol K)]       0.00475022 [mEh/K]
    Rotational Cv           2.981 [cal/(mol K)]       12.472 [J/(mol K)]       0.00475022 [mEh/K]
    Vibrational Cv          1.487 [cal/(mol K)]        6.220 [J/(mol K)]       0.00236897 [mEh/K]
  Total Cv                  7.448 [cal/(mol K)]       31.163 [J/(mol K)]       0.01186941 [mEh/K]
  Correction Cv             0.000 [cal/(mol K)]        0.000 [J/(mol K)]       0.00000000 [mEh/K]

  Constant pressure heat capacity, Cp
    Electronic Cp           0.000 [cal/(mol K)]        0.000 [J/(mol K)]       0.00000000 [mEh/K]
    Translational Cp        4.968 [cal/(mol K)]       20.786 [J/(mol K)]       0.00791703 [mEh/K]
    Rotational Cp           2.981 [cal/(mol K)]       12.472 [J/(mol K)]       0.00475022 [mEh/K]
    Vibrational Cp          1.487 [cal/(mol K)]        6.220 [J/(mol K)]       0.00236897 [mEh/K]
  Total Cp                  9.435 [cal/(mol K)]       39.478 [J/(mol K)]       0.01503622 [mEh/K]
  Correction Cp             0.000 [cal/(mol K)]        0.000 [J/(mol K)]       0.00000000 [mEh/K]

  ==> Thermochemistry Energy Analysis <==

  Raw electronic energy, E0
  Total E0, Electronic energy at well bottom at 0 [K]                 -548.56403410 [Eh]

  Zero-point energy, ZPE_vib = Sum_i nu_i / 2
    Electronic ZPE          0.000 [kcal/mol]        0.000 [kJ/mol]       0.00000000 [Eh]
    Translational ZPE       0.000 [kcal/mol]        0.000 [kJ/mol]       0.00000000 [Eh]
    Rotational ZPE          0.000 [kcal/mol]        0.000 [kJ/mol]       0.00000000 [Eh]
    Vibrational ZPE         4.511 [kcal/mol]       18.875 [kJ/mol]       0.00718905 [Eh]        1577.814 [cm^-1]
  Correction ZPE            4.511 [kcal/mol]       18.875 [kJ/mol]       0.00718905 [Eh]        1577.814 [cm^-1]
  Total ZPE, Electronic energy at 0 [K]                               -548.55684505 [Eh]

  Thermal Energy, E (includes ZPE)
    Electronic E            0.000 [kcal/mol]        0.000 [kJ/mol]       0.00000000 [Eh]
    Translational E         0.889 [kcal/mol]        3.718 [kJ/mol]       0.00141628 [Eh]
    Rotational E            0.889 [kcal/mol]        3.718 [kJ/mol]       0.00141628 [Eh]
    Vibrational E           4.654 [kcal/mol]       19.472 [kJ/mol]       0.00741640 [Eh]
  Correction E              6.431 [kcal/mol]       26.909 [kJ/mol]       0.01024895 [Eh]
  Total E, Electronic energy at  298.15 [K]                           -548.55378515 [Eh]

  Enthalpy, H_trans = E_trans + k_B * T
    Electronic H            0.000 [kcal/mol]        0.000 [kJ/mol]       0.00000000 [Eh]
    Translational H         1.481 [kcal/mol]        6.197 [kJ/mol]       0.00236046 [Eh]
    Rotational H            0.889 [kcal/mol]        3.718 [kJ/mol]       0.00141628 [Eh]
    Vibrational H           4.654 [kcal/mol]       19.472 [kJ/mol]       0.00741640 [Eh]
  Correction H              7.024 [kcal/mol]       29.388 [kJ/mol]       0.01119314 [Eh]
  Total H, Enthalpy at  298.15 [K]                                    -548.55284096 [Eh]

  Gibbs free energy, G = H - T * S
    Electronic G            0.000 [kcal/mol]        0.000 [kJ/mol]       0.00000000 [Eh]
    Translational G        -9.964 [kcal/mol]      -41.687 [kJ/mol]      -0.01587793 [Eh]
    Rotational G           -5.149 [kcal/mol]      -21.542 [kJ/mol]      -0.00820482 [Eh]
    Vibrational G           4.461 [kcal/mol]       18.663 [kJ/mol]       0.00710829 [Eh]
  Correction G            -10.652 [kcal/mol]      -44.566 [kJ/mol]      -0.01697446 [Eh]
  Total G, Free enthalpy at  298.15 [K]                               -548.58100856 [Eh]

*** Psi4 exiting successfully. Buy a developer a beer!
