                               Psi4 1.3.2 release

  ==> Input File <==

--------------------------------------------------------------------------
memory 144 GB

molecule {
0 1
C -0.0479167327 0.6682939561 0.0000000000
H -1.0907101856 0.9776732069 0.0000000000
H 0.4344161461 1.0815239129 0.8898543791
H 0.4344161461 1.0815239129 -0.8898543791
O -0.0410920225 -0.7509554452 0.0000000000
H 0.8712936485 -1.0420305436 0.0000000000
}

set dynamic_level 1
set basis cc-pV(D+d)Z

optimize("wB97M-V")
frequencies("wB97M-V")
--------------------------------------------------------------------------

    Molecular point group: cs
  Charge       = 0
  Multiplicity = 1
  Basis Set: CC-PV(D+D)Z
    Blend: CC-PV(D+D)Z
  Basis Set: (CC-PV(D+D)Z AUX)
    Blend: CC-PVDZ-JKFIT
  @DF-RKS Final Energy:  -115.66351021095576
    Total Energy =                       -115.6635102109557636
    Molecular point group: cs
  Basis Set: CC-PV(D+D)Z
    Blend: CC-PV(D+D)Z
  Basis Set: (CC-PV(D+D)Z AUX)
    Blend: CC-PVDZ-JKFIT
  @DF-RKS Final Energy:  -115.66350239107148
    Total Energy =                       -115.6635023910714750
  Basis Set: CC-PV(D+D)Z
    Blend: CC-PV(D+D)Z
  Basis Set: (CC-PV(D+D)Z AUX)
    Blend: CC-PVDZ-JKFIT
  @DF-RKS Final Energy:  -115.66351400306615
    Total Energy =                       -115.6635140030661688
  Basis Set: CC-PV(D+D)Z
    Blend: CC-PV(D+D)Z
  Basis Set: (CC-PV(D+D)Z AUX)
    Blend: CC-PVDZ-JKFIT
  @DF-RKS Final Energy:  -115.66353552040022
    Total Energy =                       -115.6635355204002309
  @DF-RKS Final Energy:  -115.66348328033119
    Total Energy =                       -115.6634832803311923
  @DF-RKS Final Energy:  -115.66354234661260
    Total Energy =                       -115.6635423466126014
  @DF-RKS Final Energy:  -115.66347025782844
    Total Energy =                       -115.6634702578284362
  @DF-RKS Final Energy:  -115.66350451666428
    Total Energy =                       -115.6635045166642755
  @DF-RKS Final Energy:  -115.66351364566182
    Total Energy =                       -115.6635136456618085
  @DF-RKS Final Energy:  -115.66348086999422
    Total Energy =                       -115.6634808699942170
  @DF-RKS Final Energy:  -115.66353717135271
    Total Energy =                       -115.6635371713527149
  @DF-RKS Final Energy:  -115.66348815926341
    Total Energy =                       -115.6634881592634088
  @DF-RKS Final Energy:  -115.66353018138894
    Total Energy =                       -115.6635301813889356
  @DF-RKS Final Energy:  -115.66346548203583
    Total Energy =                       -115.6634654820358463
  @DF-RKS Final Energy:  -115.66354821197561
    Total Energy =                       -115.6635482119756091
  @DF-RKS Final Energy:  -115.66354272449701
    Total Energy =                       -115.6635427244970060
  @DF-RKS Final Energy:  -115.66346301161187
    Total Energy =                       -115.6634630116118814
  @DF-RKS Final Energy:  -115.66390690779905
    Total Energy =                       -115.6639069077990598
  @DF-RKS Final Energy:  -115.66390723419667
    Total Energy =                       -115.6639072341966710
  @DF-RKS Final Energy:  -115.66390273566111
    Total Energy =                       -115.6639027356611109
  **** Optimization is complete! (in 4 steps) ****
    Final optimized geometry and variables:
  @DF-RKS Final Energy:  -115.66391562427229
    Total Energy =                       -115.6639156242722919
  @DF-RKS Final Energy:  -115.66391447307346
    Total Energy =                       -115.6639144730734614
  @DF-RKS Final Energy:  -115.66391346168575
    Total Energy =                       -115.6639134616857518
  @DF-RKS Final Energy:  -115.66391243153066
    Total Energy =                       -115.6639124315306617
  @DF-RKS Final Energy:  -115.66392122958283
    Total Energy =                       -115.6639212295828258
  @DF-RKS Final Energy:  -115.66392176242434
    Total Energy =                       -115.6639217624243372
  @DF-RKS Final Energy:  -115.66392208058765
    Total Energy =                       -115.6639220805876533
  @DF-RKS Final Energy:  -115.66392101733101
    Total Energy =                       -115.6639210173310062
  @DF-RKS Final Energy:  -115.66391863207177
    Total Energy =                       -115.6639186320717556
  @DF-RKS Final Energy:  -115.66391863203393
    Total Energy =                       -115.6639186320339263
  @DF-RKS Final Energy:  -115.66392203783930
    Total Energy =                       -115.6639220378392992
  @DF-RKS Final Energy:  -115.66392203783231
    Total Energy =                       -115.6639220378323074
  @DF-RKS Final Energy:  -115.66392258356154
    Total Energy =                       -115.6639225835615434
  @DF-RKS Final Energy:  -115.66392258364934
    Total Energy =                       -115.6639225836493381
  @DF-RKS Final Energy:  -115.66392182422682
    Total Energy =                       -115.6639218242268186
  @DF-RKS Final Energy:  -115.66392182421933
    Total Energy =                       -115.6639218242193152
  Basis Set: CC-PV(D+D)Z
    Blend: CC-PV(D+D)Z
  Basis Set: (CC-PV(D+D)Z AUX)
    Blend: CC-PVDZ-JKFIT
  @DF-RKS Final Energy:  -115.66392101473549
    Total Energy =                       -115.6639210147355072
  Basis Set: CC-PV(D+D)Z
    Blend: CC-PV(D+D)Z
  Basis Set: (CC-PV(D+D)Z AUX)
    Blend: CC-PVDZ-JKFIT
  @DF-RKS Final Energy:  -115.66392101472785
    Total Energy =                       -115.6639210147278476
  Multiplicity = 1
  Basis Set: CC-PV(D+D)Z
    Blend: CC-PV(D+D)Z
  Basis Set: (CC-PV(D+D)Z AUX)
    Blend: CC-PVDZ-JKFIT
  @DF-RKS Final Energy:  -115.66391779145569
    Total Energy =                       -115.6639177914556740
    Molecular point group: c1

    Geometry (in Angstrom), charge = 0, multiplicity = 1:

       Center              X                  Y                   Z               Mass
    ------------   -----------------  -----------------  -----------------  -----------------
         C           -0.030675428111     0.721072566392     0.000000000000    12.000000000000
         H           -1.082467741043     1.038624030446     0.000000000000     1.007825032230
         H            0.450218988370     1.153908093676     0.894530972389     1.007825032230
         H            0.452491250730     1.157720144870    -0.896555851511     1.007825032230
         O           -0.022469054871    -0.690914193057     0.000200918213    15.994914619570
         H            0.901604775348    -0.970630158005    -0.001163838725     1.007825032230

  Charge       = 0
  Multiplicity = 1
  Basis Set: CC-PV(D+D)Z
    Blend: CC-PV(D+D)Z
  Basis Set: (CC-PV(D+D)Z AUX)
    Blend: CC-PVDZ-JKFIT

    Orbital Energies [Eh]
    ---------------------

    Doubly Occupied:

       1A    -19.334158     2A    -10.394238     3A     -1.137825
       4A     -0.790493     5A     -0.605137     6A     -0.535533
       7A     -0.519349     8A     -0.428201     9A     -0.366147

  @DF-RKS Final Energy:  -115.66391779144698

   => Energetics <=

    Nuclear Repulsion Energy =             40.2827466101678340
    One-Electron Energy =                -236.9034005273825301
    Two-Electron Energy =                  91.7787893828347165
    DFT Exchange-Correlation Energy =     -10.8957800540277923
    Empirical Dispersion Energy =           0.0000000000000000
    VV10 Nonlocal Energy =                  0.0737267969608068
    Total Energy =                       -115.6639177914469627

  Dipole Moment: [D]
     X:     1.3462      Y:     0.8063      Z:     0.0012     Total:     1.5692

  Vibration                       7                   8                   9
  Freq [cm^-1]                 330.8900           1067.3893           1114.5608
  Irrep                          App                  Ap                  Ap
  Reduced mass [u]              1.0689              1.1835              4.5915
  Force const [mDyne/A]         0.0690              0.7944              3.3606

  Vibration                       10                  11                  12
  Freq [cm^-1]                1156.0884           1378.8229           1460.6500
  Irrep                          App                  Ap                 App
  Reduced mass [u]              1.2855              1.2854              1.0415
  Force const [mDyne/A]         1.0123              1.4398              1.3092

  Vibration                       13                  14                  15
  Freq [cm^-1]                1462.8410           1481.5542           3001.7542
  Irrep                           Ap                  Ap                  Ap
  Reduced mass [u]              1.1306              1.0626              1.0381
  Force const [mDyne/A]         1.4254              1.3742              5.5113

  Vibration                       16                  17                  18
  Freq [cm^-1]                3054.0675           3136.8649           3835.3111
  Irrep                          App                  Ap                  Ap
  Reduced mass [u]              1.1051              1.0976              1.0665
  Force const [mDyne/A]         6.0733              6.3635              9.2429

  ==> Thermochemistry Components <==

  Entropy, S
    Electronic S            0.000 [cal/(mol K)]        0.000 [J/(mol K)]       0.00000000 [mEh/K] (multiplicity = 1)
    Translational S        36.324 [cal/(mol K)]      151.980 [J/(mol K)]       0.05788598 [mEh/K] (mol. weight = 32.0262 [u], P = 101325.00 [Pa])
    Rotational S           18.988 [cal/(mol K)]       79.447 [J/(mol K)]       0.03025993 [mEh/K] (symmetry no. = 1)
    Vibrational S           1.495 [cal/(mol K)]        6.256 [J/(mol K)]       0.00238291 [mEh/K]
  Total S                  56.808 [cal/(mol K)]      237.683 [J/(mol K)]       0.09052882 [mEh/K]
  Correction S              0.000 [cal/(mol K)]        0.000 [J/(mol K)]       0.00000000 [mEh/K]

  Constant volume heat capacity, Cv
    Electronic Cv           0.000 [cal/(mol K)]        0.000 [J/(mol K)]       0.00000000 [mEh/K]
    Translational Cv        2.981 [cal/(mol K)]       12.472 [J/(mol K)]       0.00475022 [mEh/K]
    Rotational Cv           2.981 [cal/(mol K)]       12.472 [J/(mol K)]       0.00475022 [mEh/K]
    Vibrational Cv          2.791 [cal/(mol K)]       11.679 [J/(mol K)]       0.00444815 [mEh/K]
  Total Cv                  8.753 [cal/(mol K)]       36.622 [J/(mol K)]       0.01394858 [mEh/K]
  Correction Cv             0.000 [cal/(mol K)]        0.000 [J/(mol K)]       0.00000000 [mEh/K]

  Constant pressure heat capacity, Cp
    Electronic Cp           0.000 [cal/(mol K)]        0.000 [J/(mol K)]       0.00000000 [mEh/K]
    Translational Cp        4.968 [cal/(mol K)]       20.786 [J/(mol K)]       0.00791703 [mEh/K]
    Rotational Cp           2.981 [cal/(mol K)]       12.472 [J/(mol K)]       0.00475022 [mEh/K]
    Vibrational Cp          2.791 [cal/(mol K)]       11.679 [J/(mol K)]       0.00444815 [mEh/K]
  Total Cp                 10.740 [cal/(mol K)]       44.936 [J/(mol K)]       0.01711539 [mEh/K]
  Correction Cp             0.000 [cal/(mol K)]        0.000 [J/(mol K)]       0.00000000 [mEh/K]

  ==> Thermochemistry Energy Analysis <==

  Raw electronic energy, E0
  Total E0, Electronic energy at well bottom at 0 [K]                 -115.66392305 [Eh]

  Zero-point energy, ZPE_vib = Sum_i nu_i / 2
    Electronic ZPE          0.000 [kcal/mol]        0.000 [kJ/mol]       0.00000000 [Eh]
    Translational ZPE       0.000 [kcal/mol]        0.000 [kJ/mol]       0.00000000 [Eh]
    Rotational ZPE          0.000 [kcal/mol]        0.000 [kJ/mol]       0.00000000 [Eh]
    Vibrational ZPE        32.138 [kcal/mol]      134.465 [kJ/mol]       0.05121502 [Eh]       11240.397 [cm^-1]
  Correction ZPE           32.138 [kcal/mol]      134.465 [kJ/mol]       0.05121502 [Eh]       11240.397 [cm^-1]
  Total ZPE, Electronic energy at 0 [K]                               -115.61270803 [Eh]

  Thermal Energy, E (includes ZPE)
    Electronic E            0.000 [kcal/mol]        0.000 [kJ/mol]       0.00000000 [Eh]
    Translational E         0.889 [kcal/mol]        3.718 [kJ/mol]       0.00141628 [Eh]
    Rotational E            0.889 [kcal/mol]        3.718 [kJ/mol]       0.00141628 [Eh]
    Vibrational E          32.439 [kcal/mol]      135.725 [kJ/mol]       0.05169476 [Eh]
  Correction E             34.216 [kcal/mol]      143.161 [kJ/mol]       0.05452731 [Eh]
  Total E, Electronic energy at  298.15 [K]                           -115.60939573 [Eh]

  Enthalpy, H_trans = E_trans + k_B * T
    Electronic H            0.000 [kcal/mol]        0.000 [kJ/mol]       0.00000000 [Eh]
    Translational H         1.481 [kcal/mol]        6.197 [kJ/mol]       0.00236046 [Eh]
    Rotational H            0.889 [kcal/mol]        3.718 [kJ/mol]       0.00141628 [Eh]
    Vibrational H          32.439 [kcal/mol]      135.725 [kJ/mol]       0.05169476 [Eh]
  Correction H             34.809 [kcal/mol]      145.640 [kJ/mol]       0.05547150 [Eh]
  Total H, Enthalpy at  298.15 [K]                                    -115.60845155 [Eh]

  Gibbs free energy, G = H - T * S
    Electronic G            0.000 [kcal/mol]        0.000 [kJ/mol]       0.00000000 [Eh]
    Translational G        -9.349 [kcal/mol]      -39.115 [kJ/mol]      -0.01489824 [Eh]
    Rotational G           -4.773 [kcal/mol]      -19.969 [kJ/mol]      -0.00760572 [Eh]
    Vibrational G          31.993 [kcal/mol]      133.859 [kJ/mol]       0.05098429 [Eh]
  Correction G             17.872 [kcal/mol]       74.775 [kJ/mol]       0.02848033 [Eh]
  Total G, Free enthalpy at  298.15 [K]                               -115.63544272 [Eh]

*** Psi4 exiting successfully. Buy a developer a beer!
