                               Psi4 1.3.2 release

  ==> Input File <==

--------------------------------------------------------------------------
memory 144 GB

molecule {
0 3
S 0.0000000000 0.0000000000 0.0000000000
S 0.0000000000 0.0000000000 1.8968845900
}

set reference uks
set dynamic_level 1
set basis cc-pV(D+d)Z

optimize("wB97M-V")
frequencies("wB97M-V")
--------------------------------------------------------------------------

    Molecular point group: d2h
  Charge       = 0
  Multiplicity = 3
  Basis Set: CC-PV(D+D)Z
    Blend: CC-PV(D+D)Z
  Basis Set: (CC-PV(D+D)Z AUX)
    Blend: CC-PVDZ-JKFIT
  @DF-UKS Final Energy:  -796.33320338261501
    Total Energy =                       -796.3332033826150109
    Molecular point group: d2h
  Basis Set: CC-PV(D+D)Z
    Blend: CC-PV(D+D)Z
  Basis Set: (CC-PV(D+D)Z AUX)
    Blend: CC-PVDZ-JKFIT
  @DF-UKS Final Energy:  -796.33319938333170
    Total Energy =                       -796.3331993833315892
  Basis Set: CC-PV(D+D)Z
    Blend: CC-PV(D+D)Z
  Basis Set: (CC-PV(D+D)Z AUX)
    Blend: CC-PVDZ-JKFIT
  @DF-UKS Final Energy:  -796.33320684310638
    Total Energy =                       -796.3332068431064954
  Basis Set: CC-PV(D+D)Z
    Blend: CC-PV(D+D)Z
  Basis Set: (CC-PV(D+D)Z AUX)
    Blend: CC-PVDZ-JKFIT
  @DF-UKS Final Energy:  -796.33321504915159
    Total Energy =                       -796.3332150491518178
  @DF-UKS Final Energy:  -796.33321364964797
    Total Energy =                       -796.3332136496479734
  @DF-UKS Final Energy:  -796.33321590195237
    Total Energy =                       -796.3332159019525989
  @DF-UKS Final Energy:  -796.33321620678657
    Total Energy =                       -796.3332162067868012
  @DF-UKS Final Energy:  -796.33321594376650
    Total Energy =                       -796.3332159437665041
  @DF-UKS Final Energy:  -796.33321591900733
    Total Energy =                       -796.3332159190072161
  **** Optimization is complete! (in 3 steps) ****
    Final optimized geometry and variables:
  @DF-UKS Final Energy:  -796.33321620678657
    Total Energy =                       -796.3332162067864601
  @DF-UKS Final Energy:  -796.33321594376628
    Total Energy =                       -796.3332159437661630
  Basis Set: CC-PV(D+D)Z
    Blend: CC-PV(D+D)Z
  Basis Set: (CC-PV(D+D)Z AUX)
    Blend: CC-PVDZ-JKFIT
  @DF-UKS Final Energy:  -796.33321591900722
    Total Energy =                       -796.3332159190071025
  Basis Set: CC-PV(D+D)Z
    Blend: CC-PV(D+D)Z
  Basis Set: (CC-PV(D+D)Z AUX)
    Blend: CC-PVDZ-JKFIT
  @DF-UKS Final Energy:  -796.33321620678646
    Total Energy =                       -796.3332162067863464
  Multiplicity = 3
  Basis Set: CC-PV(D+D)Z
    Blend: CC-PV(D+D)Z
  Basis Set: (CC-PV(D+D)Z AUX)
    Blend: CC-PVDZ-JKFIT
  @DF-UKS Final Energy:  -796.33321594376673
    Total Energy =                       -796.3332159437666178
    Molecular point group: d2h

    Geometry (in Angstrom), charge = 0, multiplicity = 3:

       Center              X                  Y                   Z               Mass
    ------------   -----------------  -----------------  -----------------  -----------------
         S            0.000000000000     0.000000000000    -0.945837327525    31.972071174400
         S            0.000000000000     0.000000000000     0.945837327525    31.972071174400

  Charge       = 0
  Multiplicity = 3
  Basis Set: CC-PV(D+D)Z
    Blend: CC-PV(D+D)Z
  Basis Set: (CC-PV(D+D)Z AUX)
    Blend: CC-PVDZ-JKFIT

    Orbital Energies [Eh]
    ---------------------

    Alpha Occupied:

       1B1u  -89.246531     1Ag   -89.246531     2Ag    -8.166724
       2B1u   -8.166673     1B2u   -6.075038     1B3u   -6.075038
       1B3g   -6.074996     1B2g   -6.074996     3Ag    -6.074491
       3B1u   -6.073740     4Ag    -0.961408     4B1u   -0.741358
       5Ag    -0.492270     2B3u   -0.475148     2B2u   -0.475148
       2B2g   -0.327508     2B3g   -0.327508

    Alpha Virtual:

       5B1u    0.088904     6Ag     0.359193     3B3u    0.441392
       3B2u    0.441392     6B1u    0.527312     7Ag     0.529214
       8Ag     0.545991     1B1g    0.546004     4B3u    0.555816
       4B2u    0.555816     3B2g    0.590867     3B3g    0.590867
       7B1u    0.641417     1Au     0.641429     8B1u    0.760062
       9Ag     0.857819     4B3g    0.863611     4B2g    0.863611
       9B1u    1.221491     5B2u    4.420112     5B3u    4.420112
      10Ag     4.457583     2B1g    4.457589    10B1u    4.513408
       2Au     4.513414    11Ag     4.591213     5B2g    4.657106
       5B3g    4.657106    11B1u    4.825571

    Beta Occupied:

       1Ag   -89.240370     1B1u  -89.240368     2Ag    -8.160520
       2B1u   -8.160394     3Ag    -6.070631     3B1u   -6.069877
       1B2u   -6.061791     1B3u   -6.061791     1B3g   -6.061733
       1B2g   -6.061733     4Ag    -0.935599     4B1u   -0.686420
       5Ag    -0.465991     2B3u   -0.418646     2B2u   -0.418646

    Beta Virtual:

       2B2g   -0.053898     2B3g   -0.053898     5B1u    0.109038
       6Ag     0.369169     3B3u    0.475610     3B2u    0.475610
       6B1u    0.542946     7Ag     0.549654     4B3u    0.585398
       4B2u    0.585398     8Ag     0.587971     1B1g    0.587977
       3B2g    0.617897     3B3g    0.617897     7B1u    0.694823
       1Au     0.694829     8B1u    0.786437     9Ag     0.880422
       4B3g    0.893355     4B2g    0.893355     9B1u    1.244533
       5B2u    4.428150     5B3u    4.428150    10Ag     4.473986
       2B1g    4.474008    10B1u    4.530904     2Au     4.530926
      11Ag     4.595860     5B2g    4.665878     5B3g    4.665878
      11B1u    4.831937

    Final Occupation by Irrep:
             Ag   B1g   B2g   B3g    Au   B1u   B2u   B3u
    DOCC [     5,    0,    1,    1,    0,    4,    2,    2 ]
    SOCC [     0,    0,    1,    1,    0,    0,    0,    0 ]

  @DF-UKS Final Energy:  -796.33321591900710

   => Energetics <=

    Nuclear Repulsion Energy =             71.6134593069862149
    One-Electron Energy =               -1241.9234876228092617
    Two-Electron Energy =                 413.4385825166356199
    DFT Exchange-Correlation Energy =     -39.5954628402460997
    Empirical Dispersion Energy =           0.0000000000000000
    VV10 Nonlocal Energy =                  0.1336927204263567
    Total Energy =                       -796.3332159190072161

  UHF NO Occupations:
  HONO-2 :    2B2u 1.9988387
  HONO-1 :    2B3g 1.0000000
  HONO-0 :    2B2g 1.0000000
  LUNO+0 :    3B3u 0.0011613
  LUNO+1 :    3B2u 0.0011613
  LUNO+2 :    5B1u 0.0002114
  LUNO+3 :    6 Ag 0.0000946

Computation Completed

Properties will be evaluated at   0.000000,   0.000000,   0.000000 [a0]

Properties computed using the SCF density matrix

  Nuclear Dipole Moment: [e a0]
     X:     0.0000      Y:     0.0000      Z:     0.0000

  Electronic Dipole Moment: [e a0]
     X:     0.0000      Y:     0.0000      Z:     0.0000

  Dipole Moment: [e a0]
     X:     0.0000      Y:     0.0000      Z:     0.0000     Total:     0.0000

  Dipole Moment: [D]
     X:     0.0000      Y:     0.0000      Z:     0.0000     Total:     0.0000

*** tstop() called on bp1-compute00089.data.bp.acrc.priv at Tue Apr 27 18:15:17 2021
Module time:
	user time   =      98.89 seconds =       1.65 minutes
	system time =       4.37 seconds =       0.07 minutes
	total time  =          4 seconds =       0.07 minutes
Total time:
	user time   =    1178.51 seconds =      19.64 minutes
	system time =      53.73 seconds =       0.90 minutes
	total time  =         52 seconds =       0.87 minutes

         ----------------------------------------------------------
                                   FINDIF
                     R. A. King and Jonathon Misiewicz
         ---------------------------------------------------------

  Computing second-derivative from energies using projected,
  symmetry-adapted, cartesian coordinates.

  3 energies passed in, including the reference geometry.
    Using 3-point formula.
    Energy without displacement: -796.3332162068
    Check energies below for precision!
    0: -1 :      -796.3332159438
    0: 1  :      -796.3332159190

-------------------------------------------------------------

  ==> Harmonic Vibrational Analysis <==

  non-mass-weighted Hessian:       Symmetric? True   Hermitian? True   Lin Dep Dim?  5 (0)
  projection of translations (True) and rotations (True) removed 5 degrees of freedom (5)
  total projector:                 Symmetric? True   Hermitian? True   Lin Dep Dim?  5 (5)
  mass-weighted Hessian:           Symmetric? True   Hermitian? True   Lin Dep Dim?  5 (0)
  pre-proj  low-frequency mode:    0.0000i [cm^-1]
  pre-proj  low-frequency mode:    0.0000  [cm^-1]
  pre-proj  low-frequency mode:    0.0000  [cm^-1]
  pre-proj  low-frequency mode:    0.0000  [cm^-1]
  pre-proj  low-frequency mode:    0.0000  [cm^-1]
  pre-proj  all modes:['0.0000i' '0.0000' '0.0000' '0.0000' '0.0000' '763.0111']
  projected mass-weighted Hessian: Symmetric? True   Hermitian? True   Lin Dep Dim?  5 (5)
  post-proj low-frequency mode:    0.0000i [cm^-1] (TR)
  post-proj low-frequency mode:    0.0000  [cm^-1] (TR)
  post-proj low-frequency mode:    0.0000  [cm^-1] (TR)
  post-proj low-frequency mode:    0.0000  [cm^-1] (TR)
  post-proj low-frequency mode:    0.0000  [cm^-1] (TR)
  post-proj  all modes:['0.0000i' '0.0000' '0.0000' '0.0000' '0.0000' '763.0111']

  Vibration                       6
  Freq [cm^-1]                 763.0111
  Irrep                           Ag
  Reduced mass [u]             31.9721
  Force const [mDyne/A]        10.9669
  Turning point v=0 [a0]        0.0703
  RMS dev v=0 [a0 u^1/2]        0.2809
  Char temp [K]               1097.8031
  ----------------------------------------------------------------------------------
      1   S                0.00  0.00  0.71
      2   S               -0.00  0.00 -0.71

  ==> Thermochemistry Components <==

  Entropy, S
    Electronic S            2.183 [cal/(mol K)]        9.134 [J/(mol K)]       0.00347910 [mEh/K] (multiplicity = 3)
    Translational S        38.385 [cal/(mol K)]      160.603 [J/(mol K)]       0.06117054 [mEh/K] (mol. weight = 63.9441 [u], P = 101325.00 [Pa])
    Rotational S           13.639 [cal/(mol K)]       57.064 [J/(mol K)]       0.02173443 [mEh/K] (symmetry no. = 2)
    Vibrational S           0.240 [cal/(mol K)]        1.002 [J/(mol K)]       0.00038182 [mEh/K]
  Total S                  54.446 [cal/(mol K)]      227.804 [J/(mol K)]       0.08676589 [mEh/K]
  Correction S              0.000 [cal/(mol K)]        0.000 [J/(mol K)]       0.00000000 [mEh/K]

  Constant volume heat capacity, Cv
    Electronic Cv           0.000 [cal/(mol K)]        0.000 [J/(mol K)]       0.00000000 [mEh/K]
    Translational Cv        2.981 [cal/(mol K)]       12.472 [J/(mol K)]       0.00475022 [mEh/K]
    Rotational Cv           1.987 [cal/(mol K)]        8.314 [J/(mol K)]       0.00316681 [mEh/K]
    Vibrational Cv          0.714 [cal/(mol K)]        2.986 [J/(mol K)]       0.00113724 [mEh/K]
  Total Cv                  5.682 [cal/(mol K)]       23.772 [J/(mol K)]       0.00905426 [mEh/K]
  Correction Cv             0.000 [cal/(mol K)]        0.000 [J/(mol K)]       0.00000000 [mEh/K]

  Constant pressure heat capacity, Cp
    Electronic Cp           0.000 [cal/(mol K)]        0.000 [J/(mol K)]       0.00000000 [mEh/K]
    Translational Cp        4.968 [cal/(mol K)]       20.786 [J/(mol K)]       0.00791703 [mEh/K]
    Rotational Cp           1.987 [cal/(mol K)]        8.314 [J/(mol K)]       0.00316681 [mEh/K]
    Vibrational Cp          0.714 [cal/(mol K)]        2.986 [J/(mol K)]       0.00113724 [mEh/K]
  Total Cp                  7.669 [cal/(mol K)]       32.086 [J/(mol K)]       0.01222107 [mEh/K]
  Correction Cp             0.000 [cal/(mol K)]        0.000 [J/(mol K)]       0.00000000 [mEh/K]

  ==> Thermochemistry Energy Analysis <==

  Raw electronic energy, E0
  Total E0, Electronic energy at well bottom at 0 [K]                 -796.33321621 [Eh]

  Zero-point energy, ZPE_vib = Sum_i nu_i / 2
    Electronic ZPE          0.000 [kcal/mol]        0.000 [kJ/mol]       0.00000000 [Eh]
    Translational ZPE       0.000 [kcal/mol]        0.000 [kJ/mol]       0.00000000 [Eh]
    Rotational ZPE          0.000 [kcal/mol]        0.000 [kJ/mol]       0.00000000 [Eh]
    Vibrational ZPE         1.091 [kcal/mol]        4.564 [kJ/mol]       0.00173827 [Eh]         381.506 [cm^-1]
  Correction ZPE            1.091 [kcal/mol]        4.564 [kJ/mol]       0.00173827 [Eh]         381.506 [cm^-1]
  Total ZPE, Electronic energy at 0 [K]                               -796.33147794 [Eh]

  Thermal Energy, E (includes ZPE)
    Electronic E            0.000 [kcal/mol]        0.000 [kJ/mol]       0.00000000 [Eh]
    Translational E         0.889 [kcal/mol]        3.718 [kJ/mol]       0.00141628 [Eh]
    Rotational E            0.592 [kcal/mol]        2.479 [kJ/mol]       0.00094418 [Eh]
    Vibrational E           1.147 [kcal/mol]        4.800 [kJ/mol]       0.00182804 [Eh]
  Correction E              2.628 [kcal/mol]       10.997 [kJ/mol]       0.00418850 [Eh]
  Total E, Electronic energy at  298.15 [K]                           -796.32902771 [Eh]

  Enthalpy, H_trans = E_trans + k_B * T
    Electronic H            0.000 [kcal/mol]        0.000 [kJ/mol]       0.00000000 [Eh]
    Translational H         1.481 [kcal/mol]        6.197 [kJ/mol]       0.00236046 [Eh]
    Rotational H            0.592 [kcal/mol]        2.479 [kJ/mol]       0.00094418 [Eh]
    Vibrational H           1.147 [kcal/mol]        4.800 [kJ/mol]       0.00182804 [Eh]
  Correction H              3.221 [kcal/mol]       13.476 [kJ/mol]       0.00513268 [Eh]
  Total H, Enthalpy at  298.15 [K]                                    -796.32808353 [Eh]

  Gibbs free energy, G = H - T * S
    Electronic G           -0.651 [kcal/mol]       -2.723 [kJ/mol]      -0.00103729 [Eh]
    Translational G        -9.963 [kcal/mol]      -41.686 [kJ/mol]      -0.01587754 [Eh]
    Rotational G           -3.474 [kcal/mol]      -14.535 [kJ/mol]      -0.00553594 [Eh]
    Vibrational G           1.076 [kcal/mol]        4.501 [kJ/mol]       0.00171420 [Eh]
  Correction G            -13.012 [kcal/mol]      -54.444 [kJ/mol]      -0.02073657 [Eh]
  Total G, Free enthalpy at  298.15 [K]                               -796.35395277 [Eh]

    Psi4 stopped on: Tuesday, 27 April 2021 06:15PM
    Psi4 wall time for execution: 0:00:52.13

*** Psi4 exiting successfully. Buy a developer a beer!
