                               Psi4 1.3.2 release

  ==> Input File <==

--------------------------------------------------------------------------
memory 144 GB

molecule {
0 3
S 0.0000000000 0.0000000000 0.0000000000
O 0.0000000000 0.0000000000 1.4862145500
}

set reference uks
set dynamic_level 1
set basis cc-pV(D+d)Z

optimize("wB97M-V")
frequencies("wB97M-V")
--------------------------------------------------------------------------

    Molecular point group: c2v
  Charge       = 0
  Multiplicity = 3
  Basis Set: CC-PV(D+D)Z
    Blend: CC-PV(D+D)Z
  Basis Set: (CC-PV(D+D)Z AUX)
    Blend: CC-PVDZ-JKFIT
  @DF-UKS Final Energy:  -473.32426820676244
    Total Energy =                       -473.3242682067624401
    Molecular point group: c2v
  Basis Set: CC-PV(D+D)Z
    Blend: CC-PV(D+D)Z
  Basis Set: (CC-PV(D+D)Z AUX)
    Blend: CC-PVDZ-JKFIT
  @DF-UKS Final Energy:  -473.32428529677168
    Total Energy =                       -473.3242852967717340
  Basis Set: CC-PV(D+D)Z
    Blend: CC-PV(D+D)Z
  Basis Set: (CC-PV(D+D)Z AUX)
    Blend: CC-PVDZ-JKFIT
  @DF-UKS Final Energy:  -473.32424972644100
    Total Energy =                       -473.3242497264409394
  Basis Set: CC-PV(D+D)Z
    Blend: CC-PV(D+D)Z
  Basis Set: (CC-PV(D+D)Z AUX)
    Blend: CC-PVDZ-JKFIT
  @DF-UKS Final Energy:  -473.32437437689202
    Total Energy =                       -473.3243743768920240
  @DF-UKS Final Energy:  -473.32437881959976
    Total Energy =                       -473.3243788195998150
  @DF-UKS Final Energy:  -473.32436860194571
    Total Energy =                       -473.3243686019457641
  @DF-UKS Final Energy:  -473.32438421658844
    Total Energy =                       -473.3243842165883848
  @DF-UKS Final Energy:  -473.32438371311565
    Total Energy =                       -473.3243837131157079
  @DF-UKS Final Energy:  -473.32438341074948
    Total Energy =                       -473.3243834107495331
  **** Optimization is complete! (in 3 steps) ****
    Final optimized geometry and variables:
  @DF-UKS Final Energy:  -473.32438421658827
    Total Energy =                       -473.3243842165883848
  @DF-UKS Final Energy:  -473.32438371311576
    Total Energy =                       -473.3243837131157079
  Basis Set: CC-PV(D+D)Z
    Blend: CC-PV(D+D)Z
  Basis Set: (CC-PV(D+D)Z AUX)
    Blend: CC-PVDZ-JKFIT
  @DF-UKS Final Energy:  -473.32438341074925
    Total Energy =                       -473.3243834107492489
  Basis Set: CC-PV(D+D)Z
    Blend: CC-PV(D+D)Z
  Basis Set: (CC-PV(D+D)Z AUX)
    Blend: CC-PVDZ-JKFIT
  @DF-UKS Final Energy:  -473.32438421658850
    Total Energy =                       -473.3243842165884985
  Multiplicity = 3
  Basis Set: CC-PV(D+D)Z
    Blend: CC-PV(D+D)Z
  Basis Set: (CC-PV(D+D)Z AUX)
    Blend: CC-PVDZ-JKFIT
  @DF-UKS Final Energy:  -473.32438371311565
    Total Energy =                       -473.3243837131157079
    Molecular point group: c2v

    Geometry (in Angstrom), charge = 0, multiplicity = 3:

       Center              X                  Y                   Z               Mass
    ------------   -----------------  -----------------  -----------------  -----------------
         S            0.000000000000     0.000000000000    -0.498848448512    31.972071174400
         O            0.000000000000     0.000000000000     0.997143059553    15.994914619570

  Charge       = 0
  Multiplicity = 3
  Basis Set: CC-PV(D+D)Z
    Blend: CC-PV(D+D)Z
  Basis Set: (CC-PV(D+D)Z AUX)
    Blend: CC-PVDZ-JKFIT

    Orbital Energies [Eh]
    ---------------------

    Alpha Occupied:

       1A1   -89.281151     2A1   -19.418345     3A1    -8.198348
       1B2    -6.107011     1B1    -6.107011     4A1    -6.106442
       5A1    -1.213214     6A1    -0.794820     2B1    -0.556653
       2B2    -0.556653     7A1    -0.551684     3B2    -0.346366
       3B1    -0.346366

    Alpha Virtual:

       8A1     0.111206     9A1     0.520526     4B2     0.534518
       4B1     0.534518     1A2     0.568386    10A1     0.568388
      11A1     0.575027     5B2     0.629727     5B1     0.629727
      12A1     0.847757     6B1     1.067850     6B2     1.067850
      13A1     1.153728    14A1     1.722275     2A2     2.635396
      15A1     2.635413     7B1     2.759899     7B2     2.759899
      16A1     3.272128    17A1     4.458411     3A2     4.458415
       8B2     4.557131     8B1     4.557131    18A1     4.681400

    Beta Occupied:

       1A1   -89.274122     2A1   -19.395137     3A1    -8.191257
       4A1    -6.102219     1B2    -6.091837     1B1    -6.091837
       5A1    -1.169795     6A1    -0.732759     7A1    -0.515491
       2B2    -0.479658     2B1    -0.479658

    Beta Virtual:

       3B2    -0.027977     3B1    -0.027977     8A1     0.136124
       9A1     0.548896     4B2     0.558822     4B1     0.558822
      10A1     0.590050    11A1     0.625198     1A2     0.625201
       5B2     0.681149     5B1     0.681149    12A1     0.868265
       6B2     1.112826     6B1     1.112826    13A1     1.179752
      14A1     1.751442     2A2     2.702872    15A1     2.702884
       7B2     2.801198     7B1     2.801198    16A1     3.306617
       3A2     4.478150    17A1     4.478157     8B2     4.567993
       8B1     4.567993    18A1     4.689301

    Final Occupation by Irrep:
             A1    A2    B1    B2
    DOCC [     7,    0,    2,    2 ]
    SOCC [     0,    0,    1,    1 ]

  @DF-UKS Final Energy:  -473.32438341074925

   => Energetics <=

    Nuclear Repulsion Energy =             45.2774515099952310
    One-Electron Energy =                -742.7859283209863861
    Two-Electron Energy =                 250.1288360790504441
    DFT Exchange-Correlation Energy =     -26.0456690710792635
    Empirical Dispersion Energy =           0.0000000000000000
    VV10 Nonlocal Energy =                  0.1009263922707502
    Total Energy =                       -473.3243834107492489

  UHF NO Occupations:
  HONO-2 :    2 B1 1.9987394
  HONO-1 :    3 B1 1.0000000
  HONO-0 :    3 B2 1.0000000
  LUNO+0 :    4 B1 0.0012606
  LUNO+1 :    4 B2 0.0012606
  LUNO+2 :    8 A1 0.0002547
  LUNO+3 :    9 A1 0.0001298

Computation Completed

Properties will be evaluated at   0.000000,   0.000000,   0.000000 [a0]

Properties computed using the SCF density matrix

  Nuclear Dipole Moment: [e a0]
     X:     0.0000      Y:     0.0000      Z:    -0.0084

  Electronic Dipole Moment: [e a0]
     X:     0.0000      Y:     0.0000      Z:    -0.6241

  Dipole Moment: [e a0]
     X:     0.0000      Y:     0.0000      Z:    -0.6325     Total:     0.6325

  Dipole Moment: [D]
     X:     0.0000      Y:     0.0000      Z:    -1.6076     Total:     1.6076

*** tstop() called on bp1-compute00135.data.bp.acrc.priv at Tue Apr 27 18:15:04 2021
Module time:
	user time   =     112.74 seconds =       1.88 minutes
	system time =       5.00 seconds =       0.08 minutes
	total time  =          5 seconds =       0.08 minutes
Total time:
	user time   =    1348.80 seconds =      22.48 minutes
	system time =      61.86 seconds =       1.03 minutes
	total time  =         59 seconds =       0.98 minutes

         ----------------------------------------------------------
                                   FINDIF
                     R. A. King and Jonathon Misiewicz
         ---------------------------------------------------------

  Computing second-derivative from energies using projected,
  symmetry-adapted, cartesian coordinates.

  3 energies passed in, including the reference geometry.
    Using 3-point formula.
    Energy without displacement: -473.3243842166
    Check energies below for precision!
    0: -1 :      -473.3243837131
    0: 1  :      -473.3243834107

-------------------------------------------------------------

  ==> Harmonic Vibrational Analysis <==

  non-mass-weighted Hessian:       Symmetric? True   Hermitian? True   Lin Dep Dim?  5 (0)
  projection of translations (True) and rotations (True) removed 5 degrees of freedom (5)
  total projector:                 Symmetric? True   Hermitian? True   Lin Dep Dim?  5 (5)
  mass-weighted Hessian:           Symmetric? True   Hermitian? True   Lin Dep Dim?  5 (0)
  pre-proj  low-frequency mode:    0.0000i [cm^-1]
  pre-proj  low-frequency mode:    0.0000  [cm^-1]
  pre-proj  low-frequency mode:    0.0000  [cm^-1]
  pre-proj  low-frequency mode:    0.0000  [cm^-1]
  pre-proj  low-frequency mode:    0.0000  [cm^-1]
  pre-proj  all modes:['0.0000i' '0.0000' '0.0000' '0.0000' '0.0000' '1176.4023']
  projected mass-weighted Hessian: Symmetric? True   Hermitian? True   Lin Dep Dim?  5 (5)
  post-proj low-frequency mode:    0.0000i [cm^-1] (TR)
  post-proj low-frequency mode:    0.0000  [cm^-1] (TR)
  post-proj low-frequency mode:    0.0000  [cm^-1] (TR)
  post-proj low-frequency mode:    0.0000  [cm^-1] (TR)
  post-proj low-frequency mode:    0.0000  [cm^-1] (TR)
  post-proj  all modes:['0.0000i' '0.0000' '0.0000' '0.0000' '0.0000' '1176.4023']

  Vibration                       6
  Freq [cm^-1]                1176.4023
  Irrep                           A1
  Reduced mass [u]             19.1932
  Force const [mDyne/A]        15.6498
  Turning point v=0 [a0]        0.0730
  RMS dev v=0 [a0 u^1/2]        0.2262
  Char temp [K]               1692.5810
  ----------------------------------------------------------------------------------
      1   S                0.00  0.00 -0.45
      2   O                0.00  0.00  0.89

  ==> Thermochemistry Components <==

  Entropy, S
    Electronic S            2.183 [cal/(mol K)]        9.134 [J/(mol K)]       0.00347910 [mEh/K] (multiplicity = 3)
    Translational S        37.528 [cal/(mol K)]      157.018 [J/(mol K)]       0.05980487 [mEh/K] (mol. weight = 47.9670 [u], P = 101325.00 [Pa])
    Rotational S           13.279 [cal/(mol K)]       55.560 [J/(mol K)]       0.02116152 [mEh/K] (symmetry no. = 1)
    Vibrational S           0.046 [cal/(mol K)]        0.191 [J/(mol K)]       0.00007263 [mEh/K]
  Total S                  53.036 [cal/(mol K)]      221.902 [J/(mol K)]       0.08451811 [mEh/K]
  Correction S              0.000 [cal/(mol K)]        0.000 [J/(mol K)]       0.00000000 [mEh/K]

  Constant volume heat capacity, Cv
    Electronic Cv           0.000 [cal/(mol K)]        0.000 [J/(mol K)]       0.00000000 [mEh/K]
    Translational Cv        2.981 [cal/(mol K)]       12.472 [J/(mol K)]       0.00475022 [mEh/K]
    Rotational Cv           1.987 [cal/(mol K)]        8.314 [J/(mol K)]       0.00316681 [mEh/K]
    Vibrational Cv          0.221 [cal/(mol K)]        0.924 [J/(mol K)]       0.00035186 [mEh/K]
  Total Cv                  5.189 [cal/(mol K)]       21.710 [J/(mol K)]       0.00826888 [mEh/K]
  Correction Cv             0.000 [cal/(mol K)]        0.000 [J/(mol K)]       0.00000000 [mEh/K]

  Constant pressure heat capacity, Cp
    Electronic Cp           0.000 [cal/(mol K)]        0.000 [J/(mol K)]       0.00000000 [mEh/K]
    Translational Cp        4.968 [cal/(mol K)]       20.786 [J/(mol K)]       0.00791703 [mEh/K]
    Rotational Cp           1.987 [cal/(mol K)]        8.314 [J/(mol K)]       0.00316681 [mEh/K]
    Vibrational Cp          0.221 [cal/(mol K)]        0.924 [J/(mol K)]       0.00035186 [mEh/K]
  Total Cp                  7.176 [cal/(mol K)]       30.024 [J/(mol K)]       0.01143569 [mEh/K]
  Correction Cp             0.000 [cal/(mol K)]        0.000 [J/(mol K)]       0.00000000 [mEh/K]

  ==> Thermochemistry Energy Analysis <==

  Raw electronic energy, E0
  Total E0, Electronic energy at well bottom at 0 [K]                 -473.32438422 [Eh]

  Zero-point energy, ZPE_vib = Sum_i nu_i / 2
    Electronic ZPE          0.000 [kcal/mol]        0.000 [kJ/mol]       0.00000000 [Eh]
    Translational ZPE       0.000 [kcal/mol]        0.000 [kJ/mol]       0.00000000 [Eh]
    Rotational ZPE          0.000 [kcal/mol]        0.000 [kJ/mol]       0.00000000 [Eh]
    Vibrational ZPE         1.682 [kcal/mol]        7.036 [kJ/mol]       0.00268004 [Eh]         588.201 [cm^-1]
  Correction ZPE            1.682 [kcal/mol]        7.036 [kJ/mol]       0.00268004 [Eh]         588.201 [cm^-1]
  Total ZPE, Electronic energy at 0 [K]                               -473.32170417 [Eh]

  Thermal Energy, E (includes ZPE)
    Electronic E            0.000 [kcal/mol]        0.000 [kJ/mol]       0.00000000 [Eh]
    Translational E         0.889 [kcal/mol]        3.718 [kJ/mol]       0.00141628 [Eh]
    Rotational E            0.592 [kcal/mol]        2.479 [kJ/mol]       0.00094418 [Eh]
    Vibrational E           1.693 [kcal/mol]        7.085 [kJ/mol]       0.00269846 [Eh]
  Correction E              3.175 [kcal/mol]       13.282 [kJ/mol]       0.00505892 [Eh]
  Total E, Electronic energy at  298.15 [K]                           -473.31932530 [Eh]

  Enthalpy, H_trans = E_trans + k_B * T
    Electronic H            0.000 [kcal/mol]        0.000 [kJ/mol]       0.00000000 [Eh]
    Translational H         1.481 [kcal/mol]        6.197 [kJ/mol]       0.00236046 [Eh]
    Rotational H            0.592 [kcal/mol]        2.479 [kJ/mol]       0.00094418 [Eh]
    Vibrational H           1.693 [kcal/mol]        7.085 [kJ/mol]       0.00269846 [Eh]
  Correction H              3.767 [kcal/mol]       15.761 [kJ/mol]       0.00600310 [Eh]
  Total H, Enthalpy at  298.15 [K]                                    -473.31838111 [Eh]

  Gibbs free energy, G = H - T * S
    Electronic G           -0.651 [kcal/mol]       -2.723 [kJ/mol]      -0.00103729 [Eh]
    Translational G        -9.708 [kcal/mol]      -40.617 [kJ/mol]      -0.01547036 [Eh]
    Rotational G           -3.367 [kcal/mol]      -14.086 [kJ/mol]      -0.00536512 [Eh]
    Vibrational G           1.680 [kcal/mol]        7.028 [kJ/mol]       0.00267680 [Eh]
  Correction G            -12.046 [kcal/mol]      -50.399 [kJ/mol]      -0.01919597 [Eh]
  Total G, Free enthalpy at  298.15 [K]                               -473.34358019 [Eh]

    Psi4 stopped on: Tuesday, 27 April 2021 06:15PM
    Psi4 wall time for execution: 0:01:00.19

*** Psi4 exiting successfully. Buy a developer a beer!
